  COHP#       atomMU       atomNU     distance     translation      ICOHP (at) eF   for spin  1
      1          Ba1          Ba1      5.78846       0  -1  -1           -0.04291 
      1       Ba1_5s       Ba1_5s      5.78846       0  -1  -1           -0.02084 
      1       Ba1_6s       Ba1_5s      5.78846       0  -1  -1           -0.00085 
      1     Ba1_5p_y       Ba1_5s      5.78846       0  -1  -1           -0.00062 
      1     Ba1_5p_z       Ba1_5s      5.78846       0  -1  -1           -0.00127 
      1     Ba1_5p_x       Ba1_5s      5.78846       0  -1  -1           -0.00057 
      1       Ba1_5s       Ba1_6s      5.78846       0  -1  -1           -0.00148 
      1       Ba1_6s       Ba1_6s      5.78846       0  -1  -1           -0.01507 
      1     Ba1_5p_y       Ba1_6s      5.78846       0  -1  -1            0.00001 
      1     Ba1_5p_z       Ba1_6s      5.78846       0  -1  -1            0.00005 
      1     Ba1_5p_x       Ba1_6s      5.78846       0  -1  -1            0.00004 
      1       Ba1_5s     Ba1_5p_y      5.78846       0  -1  -1           -0.00048 
      1       Ba1_6s     Ba1_5p_y      5.78846       0  -1  -1            0.00002 
      1     Ba1_5p_y     Ba1_5p_y      5.78846       0  -1  -1            0.00000 
      1     Ba1_5p_z     Ba1_5p_y      5.78846       0  -1  -1           -0.00009 
      1     Ba1_5p_x     Ba1_5p_y      5.78846       0  -1  -1           -0.00005 
      1       Ba1_5s     Ba1_5p_z      5.78846       0  -1  -1           -0.00097 
      1       Ba1_6s     Ba1_5p_z      5.78846       0  -1  -1           -0.00000 
      1     Ba1_5p_y     Ba1_5p_z      5.78846       0  -1  -1           -0.00006 
      1     Ba1_5p_z     Ba1_5p_z      5.78846       0  -1  -1           -0.00004 
      1     Ba1_5p_x     Ba1_5p_z      5.78846       0  -1  -1           -0.00010 
      1       Ba1_5s     Ba1_5p_x      5.78846       0  -1  -1           -0.00044 
      1       Ba1_6s     Ba1_5p_x      5.78846       0  -1  -1            0.00001 
      1     Ba1_5p_y     Ba1_5p_x      5.78846       0  -1  -1           -0.00002 
      1     Ba1_5p_z     Ba1_5p_x      5.78846       0  -1  -1           -0.00007 
      1     Ba1_5p_x     Ba1_5p_x      5.78846       0  -1  -1            0.00000 
      2          Ba1          Ba1      5.78846      -1   0  -1           -0.04286 
      2       Ba1_5s       Ba1_5s      5.78846      -1   0  -1           -0.02083 
      2       Ba1_6s       Ba1_5s      5.78846      -1   0  -1           -0.00085 
      2     Ba1_5p_y       Ba1_5s      5.78846      -1   0  -1           -0.00060 
      2     Ba1_5p_z       Ba1_5s      5.78846      -1   0  -1           -0.00127 
      2     Ba1_5p_x       Ba1_5s      5.78846      -1   0  -1           -0.00057 
      2       Ba1_5s       Ba1_6s      5.78846      -1   0  -1           -0.00148 
      2       Ba1_6s       Ba1_6s      5.78846      -1   0  -1           -0.01508 
      2     Ba1_5p_y       Ba1_6s      5.78846      -1   0  -1            0.00000 
      2     Ba1_5p_z       Ba1_6s      5.78846      -1   0  -1            0.00005 
      2     Ba1_5p_x       Ba1_6s      5.78846      -1   0  -1            0.00004 
      2       Ba1_5s     Ba1_5p_y      5.78846      -1   0  -1           -0.00045 
      2       Ba1_6s     Ba1_5p_y      5.78846      -1   0  -1            0.00003 
      2     Ba1_5p_y     Ba1_5p_y      5.78846      -1   0  -1            0.00000 
      2     Ba1_5p_z     Ba1_5p_y      5.78846      -1   0  -1           -0.00009 
      2     Ba1_5p_x     Ba1_5p_y      5.78846      -1   0  -1           -0.00005 
      2       Ba1_5s     Ba1_5p_z      5.78846      -1   0  -1           -0.00098 
      2       Ba1_6s     Ba1_5p_z      5.78846      -1   0  -1           -0.00000 
      2     Ba1_5p_y     Ba1_5p_z      5.78846      -1   0  -1           -0.00007 
      2     Ba1_5p_z     Ba1_5p_z      5.78846      -1   0  -1           -0.00004 
      2     Ba1_5p_x     Ba1_5p_z      5.78846      -1   0  -1           -0.00010 
      2       Ba1_5s     Ba1_5p_x      5.78846      -1   0  -1           -0.00044 
      2       Ba1_6s     Ba1_5p_x      5.78846      -1   0  -1            0.00001 
      2     Ba1_5p_y     Ba1_5p_x      5.78846      -1   0  -1           -0.00002 
      2     Ba1_5p_z     Ba1_5p_x      5.78846      -1   0  -1           -0.00007 
      2     Ba1_5p_x     Ba1_5p_x      5.78846      -1   0  -1            0.00000 
      3          Ba1          Ba1      4.08113       0   0  -1           -0.52914 
      3       Ba1_5s       Ba1_5s      4.08113       0   0  -1           -0.02497 
      3       Ba1_6s       Ba1_5s      4.08113       0   0  -1           -0.21146 
      3     Ba1_5p_y       Ba1_5s      4.08113       0   0  -1           -0.00000 
      3     Ba1_5p_z       Ba1_5s      4.08113       0   0  -1           -0.00003 
      3     Ba1_5p_x       Ba1_5s      4.08113       0   0  -1           -0.00012 
      3       Ba1_5s       Ba1_6s      4.08113       0   0  -1           -0.20414 
      3       Ba1_6s       Ba1_6s      4.08113       0   0  -1            0.00011 
      3     Ba1_5p_y       Ba1_6s      4.08113       0   0  -1           -0.00000 
      3     Ba1_5p_z       Ba1_6s      4.08113       0   0  -1           -0.04652 
      3     Ba1_5p_x       Ba1_6s      4.08113       0   0  -1           -0.00002 
      3       Ba1_5s     Ba1_5p_y      4.08113       0   0  -1           -0.00000 
      3       Ba1_6s     Ba1_5p_y      4.08113       0   0  -1           -0.00000 
      3     Ba1_5p_y     Ba1_5p_y      4.08113       0   0  -1           -0.00024 
      3     Ba1_5p_z     Ba1_5p_y      4.08113       0   0  -1           -0.00000 
      3     Ba1_5p_x     Ba1_5p_y      4.08113       0   0  -1           -0.00000 
      3       Ba1_5s     Ba1_5p_z      4.08113       0   0  -1           -0.00003 
      3       Ba1_6s     Ba1_5p_z      4.08113       0   0  -1           -0.04118 
      3     Ba1_5p_y     Ba1_5p_z      4.08113       0   0  -1            0.00000 
      3     Ba1_5p_z     Ba1_5p_z      4.08113       0   0  -1           -0.00009 
      3     Ba1_5p_x     Ba1_5p_z      4.08113       0   0  -1           -0.00003 
      3       Ba1_5s     Ba1_5p_x      4.08113       0   0  -1           -0.00012 
      3       Ba1_6s     Ba1_5p_x      4.08113       0   0  -1           -0.00001 
      3     Ba1_5p_y     Ba1_5p_x      4.08113       0   0  -1           -0.00000 
      3     Ba1_5p_z     Ba1_5p_x      4.08113       0   0  -1           -0.00002 
      3     Ba1_5p_x     Ba1_5p_x      4.08113       0   0  -1           -0.00027 
      4          Ba1          Ba1      5.75467       1   0  -1           -0.04690 
      4       Ba1_5s       Ba1_5s      5.75467       1   0  -1           -0.02268 
      4       Ba1_6s       Ba1_5s      5.75467       1   0  -1           -0.00099 
      4     Ba1_5p_y       Ba1_5s      5.75467       1   0  -1           -0.00061 
      4     Ba1_5p_z       Ba1_5s      5.75467       1   0  -1           -0.00091 
      4     Ba1_5p_x       Ba1_5s      5.75467       1   0  -1           -0.00066 
      4       Ba1_5s       Ba1_6s      5.75467       1   0  -1           -0.00099 
      4       Ba1_6s       Ba1_6s      5.75467       1   0  -1           -0.01750 
      4     Ba1_5p_y       Ba1_6s      5.75467       1   0  -1            0.00003 
      4     Ba1_5p_z       Ba1_6s      5.75467       1   0  -1            0.00005 
      4     Ba1_5p_x       Ba1_6s      5.75467       1   0  -1            0.00001 
      4       Ba1_5s     Ba1_5p_y      5.75467       1   0  -1           -0.00045 
      4       Ba1_6s     Ba1_5p_y      5.75467       1   0  -1            0.00002 
      4     Ba1_5p_y     Ba1_5p_y      5.75467       1   0  -1            0.00000 
      4     Ba1_5p_z     Ba1_5p_y      5.75467       1   0  -1           -0.00006 
      4     Ba1_5p_x     Ba1_5p_y      5.75467       1   0  -1           -0.00003 
      4       Ba1_5s     Ba1_5p_z      5.75467       1   0  -1           -0.00138 
      4       Ba1_6s     Ba1_5p_z      5.75467       1   0  -1            0.00003 
      4     Ba1_5p_y     Ba1_5p_z      5.75467       1   0  -1           -0.00011 
      4     Ba1_5p_z     Ba1_5p_z      5.75467       1   0  -1           -0.00003 
      4     Ba1_5p_x     Ba1_5p_z      5.75467       1   0  -1           -0.00008 
      4       Ba1_5s     Ba1_5p_x      5.75467       1   0  -1           -0.00046 
      4       Ba1_6s     Ba1_5p_x      5.75467       1   0  -1            0.00003 
      4     Ba1_5p_y     Ba1_5p_x      5.75467       1   0  -1           -0.00005 
      4     Ba1_5p_z     Ba1_5p_x      5.75467       1   0  -1           -0.00008 
      4     Ba1_5p_x     Ba1_5p_x      5.75467       1   0  -1            0.00000 
      5          Ba1          Ba1      5.75467       0   1  -1           -0.04700 
      5       Ba1_5s       Ba1_5s      5.75467       0   1  -1           -0.02269 
      5       Ba1_6s       Ba1_5s      5.75467       0   1  -1           -0.00099 
      5     Ba1_5p_y       Ba1_5s      5.75467       0   1  -1           -0.00068 
      5     Ba1_5p_z       Ba1_5s      5.75467       0   1  -1           -0.00091 
      5     Ba1_5p_x       Ba1_5s      5.75467       0   1  -1           -0.00066 
      5       Ba1_5s       Ba1_6s      5.75467       0   1  -1           -0.00099 
      5       Ba1_6s       Ba1_6s      5.75467       0   1  -1           -0.01750 
      5     Ba1_5p_y       Ba1_6s      5.75467       0   1  -1            0.00001 
      5     Ba1_5p_z       Ba1_6s      5.75467       0   1  -1            0.00005 
      5     Ba1_5p_x       Ba1_6s      5.75467       0   1  -1            0.00001 
      5       Ba1_5s     Ba1_5p_y      5.75467       0   1  -1           -0.00047 
      5       Ba1_6s     Ba1_5p_y      5.75467       0   1  -1            0.00002 
      5     Ba1_5p_y     Ba1_5p_y      5.75467       0   1  -1            0.00000 
      5     Ba1_5p_z     Ba1_5p_y      5.75467       0   1  -1           -0.00006 
      5     Ba1_5p_x     Ba1_5p_y      5.75467       0   1  -1           -0.00003 
      5       Ba1_5s     Ba1_5p_z      5.75467       0   1  -1           -0.00138 
      5       Ba1_6s     Ba1_5p_z      5.75467       0   1  -1            0.00003 
      5     Ba1_5p_y     Ba1_5p_z      5.75467       0   1  -1           -0.00011 
      5     Ba1_5p_z     Ba1_5p_z      5.75467       0   1  -1           -0.00003 
      5     Ba1_5p_x     Ba1_5p_z      5.75467       0   1  -1           -0.00009 
      5       Ba1_5s     Ba1_5p_x      5.75467       0   1  -1           -0.00046 
      5       Ba1_6s     Ba1_5p_x      5.75467       0   1  -1            0.00003 
      5     Ba1_5p_y     Ba1_5p_x      5.75467       0   1  -1           -0.00005 
      5     Ba1_5p_z     Ba1_5p_x      5.75467       0   1  -1           -0.00008 
      5     Ba1_5p_x     Ba1_5p_x      5.75467       0   1  -1            0.00000 
      6          Ba1          Ba1      5.78846      -1  -1   0           -0.04272 
      6       Ba1_5s       Ba1_5s      5.78846      -1  -1   0           -0.02084 
      6       Ba1_6s       Ba1_5s      5.78846      -1  -1   0           -0.00085 
      6     Ba1_5p_y       Ba1_5s      5.78846      -1  -1   0           -0.00000 
      6     Ba1_5p_z       Ba1_5s      5.78846      -1  -1   0            0.00000 
      6     Ba1_5p_x       Ba1_5s      5.78846      -1  -1   0           -0.00238 
      6       Ba1_5s       Ba1_6s      5.78846      -1  -1   0           -0.00148 
      6       Ba1_6s       Ba1_6s      5.78846      -1  -1   0           -0.01507 
      6     Ba1_5p_y       Ba1_6s      5.78846      -1  -1   0           -0.00000 
      6     Ba1_5p_z       Ba1_6s      5.78846      -1  -1   0           -0.00001 
      6     Ba1_5p_x       Ba1_6s      5.78846      -1  -1   0            0.00009 
      6       Ba1_5s     Ba1_5p_y      5.78846      -1  -1   0            0.00000 
      6       Ba1_6s     Ba1_5p_y      5.78846      -1  -1   0           -0.00000 
      6     Ba1_5p_y     Ba1_5p_y      5.78846      -1  -1   0           -0.00003 
      6     Ba1_5p_z     Ba1_5p_y      5.78846      -1  -1   0            0.00000 
      6     Ba1_5p_x     Ba1_5p_y      5.78846      -1  -1   0           -0.00000 
      6       Ba1_5s     Ba1_5p_z      5.78846      -1  -1   0           -0.00000 
      6       Ba1_6s     Ba1_5p_z      5.78846      -1  -1   0           -0.00000 
      6     Ba1_5p_y     Ba1_5p_z      5.78846      -1  -1   0           -0.00000 
      6     Ba1_5p_z     Ba1_5p_z      5.78846      -1  -1   0           -0.00004 
      6     Ba1_5p_x     Ba1_5p_z      5.78846      -1  -1   0           -0.00000 
      6       Ba1_5s     Ba1_5p_x      5.78846      -1  -1   0           -0.00181 
      6       Ba1_6s     Ba1_5p_x      5.78846      -1  -1   0            0.00005 
      6     Ba1_5p_y     Ba1_5p_x      5.78846      -1  -1   0            0.00000 
      6     Ba1_5p_z     Ba1_5p_x      5.78846      -1  -1   0           -0.00000 
      6     Ba1_5p_x     Ba1_5p_x      5.78846      -1  -1   0           -0.00033 
      7          Ba1          Ba1      4.08113       0  -1   0           -0.52609 
      7       Ba1_5s       Ba1_5s      4.08113       0  -1   0           -0.02496 
      7       Ba1_6s       Ba1_5s      4.08113       0  -1   0           -0.21148 
      7     Ba1_5p_y       Ba1_5s      4.08113       0  -1   0           -0.00014 
      7     Ba1_5p_z       Ba1_5s      4.08113       0  -1   0           -0.00007 
      7     Ba1_5p_x       Ba1_5s      4.08113       0  -1   0            0.00002 
      7       Ba1_5s       Ba1_6s      4.08113       0  -1   0           -0.20416 
      7       Ba1_6s       Ba1_6s      4.08113       0  -1   0            0.00010 
      7     Ba1_5p_y       Ba1_6s      4.08113       0  -1   0           -0.02309 
      7     Ba1_5p_z       Ba1_6s      4.08113       0  -1   0           -0.00000 
      7     Ba1_5p_x       Ba1_6s      4.08113       0  -1   0           -0.02199 
      7       Ba1_5s     Ba1_5p_y      4.08113       0  -1   0            0.00002 
      7       Ba1_6s     Ba1_5p_y      4.08113       0  -1   0           -0.01911 
      7     Ba1_5p_y     Ba1_5p_y      4.08113       0  -1   0            0.00002 
      7     Ba1_5p_z     Ba1_5p_y      4.08113       0  -1   0           -0.00001 
      7     Ba1_5p_x     Ba1_5p_y      4.08113       0  -1   0           -0.00032 
      7       Ba1_5s     Ba1_5p_z      4.08113       0  -1   0           -0.00005 
      7       Ba1_6s     Ba1_5p_z      4.08113       0  -1   0           -0.00002 
      7     Ba1_5p_y     Ba1_5p_z      4.08113       0  -1   0           -0.00000 
      7     Ba1_5p_z     Ba1_5p_z      4.08113       0  -1   0           -0.00029 
      7     Ba1_5p_x     Ba1_5p_z      4.08113       0  -1   0           -0.00001 
      7       Ba1_5s     Ba1_5p_x      4.08113       0  -1   0           -0.00012 
      7       Ba1_6s     Ba1_5p_x      4.08113       0  -1   0           -0.02036 
      7     Ba1_5p_y     Ba1_5p_x      4.08113       0  -1   0           -0.00009 
      7     Ba1_5p_z     Ba1_5p_x      4.08113       0  -1   0           -0.00001 
      7     Ba1_5p_x     Ba1_5p_x      4.08113       0  -1   0            0.00002 
      8          Ba1          Ba1      5.75467       1  -1   0           -0.04680 
      8       Ba1_5s       Ba1_5s      5.75467       1  -1   0           -0.02269 
      8       Ba1_6s       Ba1_5s      5.75467       1  -1   0           -0.00099 
      8     Ba1_5p_y       Ba1_5s      5.75467       1  -1   0           -0.00216 
      8     Ba1_5p_z       Ba1_5s      5.75467       1  -1   0            0.00000 
      8     Ba1_5p_x       Ba1_5s      5.75467       1  -1   0           -0.00002 
      8       Ba1_5s       Ba1_6s      5.75467       1  -1   0           -0.00099 
      8       Ba1_6s       Ba1_6s      5.75467       1  -1   0           -0.01750 
      8     Ba1_5p_y       Ba1_6s      5.75467       1  -1   0            0.00010 
      8     Ba1_5p_z       Ba1_6s      5.75467       1  -1   0            0.00000 
      8     Ba1_5p_x       Ba1_6s      5.75467       1  -1   0           -0.00000 
      8       Ba1_5s     Ba1_5p_y      5.75467       1  -1   0           -0.00222 
      8       Ba1_6s     Ba1_5p_y      5.75467       1  -1   0            0.00010 
      8     Ba1_5p_y     Ba1_5p_y      5.75467       1  -1   0           -0.00034 
      8     Ba1_5p_z     Ba1_5p_y      5.75467       1  -1   0           -0.00000 
      8     Ba1_5p_x     Ba1_5p_y      5.75467       1  -1   0           -0.00000 
      8       Ba1_5s     Ba1_5p_z      5.75467       1  -1   0            0.00000 
      8       Ba1_6s     Ba1_5p_z      5.75467       1  -1   0            0.00000 
      8     Ba1_5p_y     Ba1_5p_z      5.75467       1  -1   0           -0.00000 
      8     Ba1_5p_z     Ba1_5p_z      5.75467       1  -1   0           -0.00005 
      8     Ba1_5p_x     Ba1_5p_z      5.75467       1  -1   0            0.00000 
      8       Ba1_5s     Ba1_5p_x      5.75467       1  -1   0           -0.00002 
      8       Ba1_6s     Ba1_5p_x      5.75467       1  -1   0           -0.00000 
      8     Ba1_5p_y     Ba1_5p_x      5.75467       1  -1   0           -0.00000 
      8     Ba1_5p_z     Ba1_5p_x      5.75467       1  -1   0           -0.00000 
      8     Ba1_5p_x     Ba1_5p_x      5.75467       1  -1   0           -0.00004 
      9          Ba1          Ba1      4.08113      -1   0   0           -0.52526 
      9       Ba1_5s       Ba1_5s      4.08113      -1   0   0           -0.02496 
      9       Ba1_6s       Ba1_5s      4.08113      -1   0   0           -0.21146 
      9     Ba1_5p_y       Ba1_5s      4.08113      -1   0   0           -0.00015 
      9     Ba1_5p_z       Ba1_5s      4.08113      -1   0   0           -0.00007 
      9     Ba1_5p_x       Ba1_5s      4.08113      -1   0   0            0.00002 
      9       Ba1_5s       Ba1_6s      4.08113      -1   0   0           -0.20414 
      9       Ba1_6s       Ba1_6s      4.08113      -1   0   0            0.00011 
      9     Ba1_5p_y       Ba1_6s      4.08113      -1   0   0           -0.02264 
      9     Ba1_5p_z       Ba1_6s      4.08113      -1   0   0           -0.00000 
      9     Ba1_5p_x       Ba1_6s      4.08113      -1   0   0           -0.02201 
      9       Ba1_5s     Ba1_5p_y      4.08113      -1   0   0            0.00001 
      9       Ba1_6s     Ba1_5p_y      4.08113      -1   0   0           -0.01872 
      9     Ba1_5p_y     Ba1_5p_y      4.08113      -1   0   0            0.00001 
      9     Ba1_5p_z     Ba1_5p_y      4.08113      -1   0   0           -0.00001 
      9     Ba1_5p_x     Ba1_5p_y      4.08113      -1   0   0           -0.00031 
      9       Ba1_5s     Ba1_5p_z      4.08113      -1   0   0           -0.00004 
      9       Ba1_6s     Ba1_5p_z      4.08113      -1   0   0           -0.00002 
      9     Ba1_5p_y     Ba1_5p_z      4.08113      -1   0   0           -0.00000 
      9     Ba1_5p_z     Ba1_5p_z      4.08113      -1   0   0           -0.00029 
      9     Ba1_5p_x     Ba1_5p_z      4.08113      -1   0   0           -0.00001 
      9       Ba1_5s     Ba1_5p_x      4.08113      -1   0   0           -0.00012 
      9       Ba1_6s     Ba1_5p_x      4.08113      -1   0   0           -0.02035 
      9     Ba1_5p_y     Ba1_5p_x      4.08113      -1   0   0           -0.00010 
      9     Ba1_5p_z     Ba1_5p_x      4.08113      -1   0   0           -0.00000 
      9     Ba1_5p_x     Ba1_5p_x      4.08113      -1   0   0            0.00002 
     10          Ba1          Ba1      4.08113       1   0   0           -0.52526 
     10       Ba1_5s       Ba1_5s      4.08113       1   0   0           -0.02496 
     10       Ba1_6s       Ba1_5s      4.08113       1   0   0           -0.20414 
     10     Ba1_5p_y       Ba1_5s      4.08113       1   0   0            0.00001 
     10     Ba1_5p_z       Ba1_5s      4.08113       1   0   0           -0.00004 
     10     Ba1_5p_x       Ba1_5s      4.08113       1   0   0           -0.00012 
     10       Ba1_5s       Ba1_6s      4.08113       1   0   0           -0.21146 
     10       Ba1_6s       Ba1_6s      4.08113       1   0   0            0.00011 
     10     Ba1_5p_y       Ba1_6s      4.08113       1   0   0           -0.01872 
     10     Ba1_5p_z       Ba1_6s      4.08113       1   0   0           -0.00002 
     10     Ba1_5p_x       Ba1_6s      4.08113       1   0   0           -0.02035 
     10       Ba1_5s     Ba1_5p_y      4.08113       1   0   0           -0.00015 
     10       Ba1_6s     Ba1_5p_y      4.08113       1   0   0           -0.02264 
     10     Ba1_5p_y     Ba1_5p_y      4.08113       1   0   0            0.00001 
     10     Ba1_5p_z     Ba1_5p_y      4.08113       1   0   0           -0.00000 
     10     Ba1_5p_x     Ba1_5p_y      4.08113       1   0   0           -0.00010 
     10       Ba1_5s     Ba1_5p_z      4.08113       1   0   0           -0.00007 
     10       Ba1_6s     Ba1_5p_z      4.08113       1   0   0           -0.00000 
     10     Ba1_5p_y     Ba1_5p_z      4.08113       1   0   0           -0.00001 
     10     Ba1_5p_z     Ba1_5p_z      4.08113       1   0   0           -0.00029 
     10     Ba1_5p_x     Ba1_5p_z      4.08113       1   0   0           -0.00000 
     10       Ba1_5s     Ba1_5p_x      4.08113       1   0   0            0.00002 
     10       Ba1_6s     Ba1_5p_x      4.08113       1   0   0           -0.02201 
     10     Ba1_5p_y     Ba1_5p_x      4.08113       1   0   0           -0.00031 
     10     Ba1_5p_z     Ba1_5p_x      4.08113       1   0   0           -0.00001 
     10     Ba1_5p_x     Ba1_5p_x      4.08113       1   0   0            0.00002 
     11          Ba1          Ba1      5.75467      -1   1   0           -0.04680 
     11       Ba1_5s       Ba1_5s      5.75467      -1   1   0           -0.02269 
     11       Ba1_6s       Ba1_5s      5.75467      -1   1   0           -0.00099 
     11     Ba1_5p_y       Ba1_5s      5.75467      -1   1   0           -0.00222 
     11     Ba1_5p_z       Ba1_5s      5.75467      -1   1   0            0.00000 
     11     Ba1_5p_x       Ba1_5s      5.75467      -1   1   0           -0.00002 
     11       Ba1_5s       Ba1_6s      5.75467      -1   1   0           -0.00099 
     11       Ba1_6s       Ba1_6s      5.75467      -1   1   0           -0.01750 
     11     Ba1_5p_y       Ba1_6s      5.75467      -1   1   0            0.00010 
     11     Ba1_5p_z       Ba1_6s      5.75467      -1   1   0            0.00000 
     11     Ba1_5p_x       Ba1_6s      5.75467      -1   1   0           -0.00000 
     11       Ba1_5s     Ba1_5p_y      5.75467      -1   1   0           -0.00216 
     11       Ba1_6s     Ba1_5p_y      5.75467      -1   1   0            0.00010 
     11     Ba1_5p_y     Ba1_5p_y      5.75467      -1   1   0           -0.00034 
     11     Ba1_5p_z     Ba1_5p_y      5.75467      -1   1   0           -0.00000 
     11     Ba1_5p_x     Ba1_5p_y      5.75467      -1   1   0           -0.00000 
     11       Ba1_5s     Ba1_5p_z      5.75467      -1   1   0            0.00000 
     11       Ba1_6s     Ba1_5p_z      5.75467      -1   1   0            0.00000 
     11     Ba1_5p_y     Ba1_5p_z      5.75467      -1   1   0           -0.00000 
     11     Ba1_5p_z     Ba1_5p_z      5.75467      -1   1   0           -0.00005 
     11     Ba1_5p_x     Ba1_5p_z      5.75467      -1   1   0           -0.00000 
     11       Ba1_5s     Ba1_5p_x      5.75467      -1   1   0           -0.00002 
     11       Ba1_6s     Ba1_5p_x      5.75467      -1   1   0           -0.00000 
     11     Ba1_5p_y     Ba1_5p_x      5.75467      -1   1   0           -0.00000 
     11     Ba1_5p_z     Ba1_5p_x      5.75467      -1   1   0            0.00000 
     11     Ba1_5p_x     Ba1_5p_x      5.75467      -1   1   0           -0.00004 
     12          Ba1          Ba1      4.08113       0   1   0           -0.52609 
     12       Ba1_5s       Ba1_5s      4.08113       0   1   0           -0.02496 
     12       Ba1_6s       Ba1_5s      4.08113       0   1   0           -0.20416 
     12     Ba1_5p_y       Ba1_5s      4.08113       0   1   0            0.00002 
     12     Ba1_5p_z       Ba1_5s      4.08113       0   1   0           -0.00005 
     12     Ba1_5p_x       Ba1_5s      4.08113       0   1   0           -0.00012 
     12       Ba1_5s       Ba1_6s      4.08113       0   1   0           -0.21148 
     12       Ba1_6s       Ba1_6s      4.08113       0   1   0            0.00010 
     12     Ba1_5p_y       Ba1_6s      4.08113       0   1   0           -0.01911 
     12     Ba1_5p_z       Ba1_6s      4.08113       0   1   0           -0.00002 
     12     Ba1_5p_x       Ba1_6s      4.08113       0   1   0           -0.02036 
     12       Ba1_5s     Ba1_5p_y      4.08113       0   1   0           -0.00014 
     12       Ba1_6s     Ba1_5p_y      4.08113       0   1   0           -0.02309 
     12     Ba1_5p_y     Ba1_5p_y      4.08113       0   1   0            0.00002 
     12     Ba1_5p_z     Ba1_5p_y      4.08113       0   1   0           -0.00000 
     12     Ba1_5p_x     Ba1_5p_y      4.08113       0   1   0           -0.00009 
     12       Ba1_5s     Ba1_5p_z      4.08113       0   1   0           -0.00007 
     12       Ba1_6s     Ba1_5p_z      4.08113       0   1   0           -0.00000 
     12     Ba1_5p_y     Ba1_5p_z      4.08113       0   1   0           -0.00001 
     12     Ba1_5p_z     Ba1_5p_z      4.08113       0   1   0           -0.00029 
     12     Ba1_5p_x     Ba1_5p_z      4.08113       0   1   0           -0.00001 
     12       Ba1_5s     Ba1_5p_x      4.08113       0   1   0            0.00002 
     12       Ba1_6s     Ba1_5p_x      4.08113       0   1   0           -0.02199 
     12     Ba1_5p_y     Ba1_5p_x      4.08113       0   1   0           -0.00032 
     12     Ba1_5p_z     Ba1_5p_x      4.08113       0   1   0           -0.00001 
     12     Ba1_5p_x     Ba1_5p_x      4.08113       0   1   0            0.00002 
     13          Ba1          Ba1      5.78846       1   1   0           -0.04272 
     13       Ba1_5s       Ba1_5s      5.78846       1   1   0           -0.02084 
     13       Ba1_6s       Ba1_5s      5.78846       1   1   0           -0.00148 
     13     Ba1_5p_y       Ba1_5s      5.78846       1   1   0            0.00000 
     13     Ba1_5p_z       Ba1_5s      5.78846       1   1   0           -0.00000 
     13     Ba1_5p_x       Ba1_5s      5.78846       1   1   0           -0.00181 
     13       Ba1_5s       Ba1_6s      5.78846       1   1   0           -0.00085 
     13       Ba1_6s       Ba1_6s      5.78846       1   1   0           -0.01507 
     13     Ba1_5p_y       Ba1_6s      5.78846       1   1   0           -0.00000 
     13     Ba1_5p_z       Ba1_6s      5.78846       1   1   0           -0.00000 
     13     Ba1_5p_x       Ba1_6s      5.78846       1   1   0            0.00005 
     13       Ba1_5s     Ba1_5p_y      5.78846       1   1   0           -0.00000 
     13       Ba1_6s     Ba1_5p_y      5.78846       1   1   0           -0.00000 
     13     Ba1_5p_y     Ba1_5p_y      5.78846       1   1   0           -0.00003 
     13     Ba1_5p_z     Ba1_5p_y      5.78846       1   1   0           -0.00000 
     13     Ba1_5p_x     Ba1_5p_y      5.78846       1   1   0            0.00000 
     13       Ba1_5s     Ba1_5p_z      5.78846       1   1   0            0.00000 
     13       Ba1_6s     Ba1_5p_z      5.78846       1   1   0           -0.00001 
     13     Ba1_5p_y     Ba1_5p_z      5.78846       1   1   0            0.00000 
     13     Ba1_5p_z     Ba1_5p_z      5.78846       1   1   0           -0.00004 
     13     Ba1_5p_x     Ba1_5p_z      5.78846       1   1   0           -0.00000 
     13       Ba1_5s     Ba1_5p_x      5.78846       1   1   0           -0.00238 
     13       Ba1_6s     Ba1_5p_x      5.78846       1   1   0            0.00009 
     13     Ba1_5p_y     Ba1_5p_x      5.78846       1   1   0           -0.00000 
     13     Ba1_5p_z     Ba1_5p_x      5.78846       1   1   0           -0.00000 
     13     Ba1_5p_x     Ba1_5p_x      5.78846       1   1   0           -0.00033 
     14          Ba1          Ba1      5.75467       0  -1   1           -0.04700 
     14       Ba1_5s       Ba1_5s      5.75467       0  -1   1           -0.02269 
     14       Ba1_6s       Ba1_5s      5.75467       0  -1   1           -0.00099 
     14     Ba1_5p_y       Ba1_5s      5.75467       0  -1   1           -0.00047 
     14     Ba1_5p_z       Ba1_5s      5.75467       0  -1   1           -0.00138 
     14     Ba1_5p_x       Ba1_5s      5.75467       0  -1   1           -0.00046 
     14       Ba1_5s       Ba1_6s      5.75467       0  -1   1           -0.00099 
     14       Ba1_6s       Ba1_6s      5.75467       0  -1   1           -0.01750 
     14     Ba1_5p_y       Ba1_6s      5.75467       0  -1   1            0.00002 
     14     Ba1_5p_z       Ba1_6s      5.75467       0  -1   1            0.00003 
     14     Ba1_5p_x       Ba1_6s      5.75467       0  -1   1            0.00003 
     14       Ba1_5s     Ba1_5p_y      5.75467       0  -1   1           -0.00068 
     14       Ba1_6s     Ba1_5p_y      5.75467       0  -1   1            0.00001 
     14     Ba1_5p_y     Ba1_5p_y      5.75467       0  -1   1            0.00000 
     14     Ba1_5p_z     Ba1_5p_y      5.75467       0  -1   1           -0.00011 
     14     Ba1_5p_x     Ba1_5p_y      5.75467       0  -1   1           -0.00005 
     14       Ba1_5s     Ba1_5p_z      5.75467       0  -1   1           -0.00091 
     14       Ba1_6s     Ba1_5p_z      5.75467       0  -1   1            0.00005 
     14     Ba1_5p_y     Ba1_5p_z      5.75467       0  -1   1           -0.00006 
     14     Ba1_5p_z     Ba1_5p_z      5.75467       0  -1   1           -0.00003 
     14     Ba1_5p_x     Ba1_5p_z      5.75467       0  -1   1           -0.00008 
     14       Ba1_5s     Ba1_5p_x      5.75467       0  -1   1           -0.00066 