  COHP#       atomMU       atomNU     distance     translation      ICOHP (at) eF   for spin  1
      1           C1           C1      5.64988       1  -1  -2           -0.00001 
      1        C1_2s        C1_2s      5.64988       1  -1  -2           -0.00000 
      1      C1_2p_y        C1_2s      5.64988       1  -1  -2           -0.00000 
      1      C1_2p_z        C1_2s      5.64988       1  -1  -2            0.00001 
      1      C1_2p_x        C1_2s      5.64988       1  -1  -2           -0.00000 
      1        C1_2s      C1_2p_y      5.64988       1  -1  -2           -0.00000 
      1      C1_2p_y      C1_2p_y      5.64988       1  -1  -2            0.00000 
      1      C1_2p_z      C1_2p_y      5.64988       1  -1  -2           -0.00000 
      1      C1_2p_x      C1_2p_y      5.64988       1  -1  -2           -0.00001 
      1        C1_2s      C1_2p_z      5.64988       1  -1  -2            0.00001 
      1      C1_2p_y      C1_2p_z      5.64988       1  -1  -2           -0.00000 
      1      C1_2p_z      C1_2p_z      5.64988       1  -1  -2           -0.00000 
      1      C1_2p_x      C1_2p_z      5.64988       1  -1  -2            0.00000 
      1        C1_2s      C1_2p_x      5.64988       1  -1  -2           -0.00000 
      1      C1_2p_y      C1_2p_x      5.64988       1  -1  -2           -0.00001 
      1      C1_2p_z      C1_2p_x      5.64988       1  -1  -2            0.00000 
      1      C1_2p_x      C1_2p_x      5.64988       1  -1  -2           -0.00000 
      2           C1           C1      5.64988       2  -1  -2           -0.00001 
      2        C1_2s        C1_2s      5.64988       2  -1  -2           -0.00000 
      2      C1_2p_y        C1_2s      5.64988       2  -1  -2            0.00001 
      2      C1_2p_z        C1_2s      5.64988       2  -1  -2           -0.00000 
      2      C1_2p_x        C1_2s      5.64988       2  -1  -2           -0.00000 
      2        C1_2s      C1_2p_y      5.64988       2  -1  -2            0.00001 
      2      C1_2p_y      C1_2p_y      5.64988       2  -1  -2           -0.00000 
      2      C1_2p_z      C1_2p_y      5.64988       2  -1  -2           -0.00000 
      2      C1_2p_x      C1_2p_y      5.64988       2  -1  -2            0.00000 
      2        C1_2s      C1_2p_z      5.64988       2  -1  -2           -0.00000 
      2      C1_2p_y      C1_2p_z      5.64988       2  -1  -2           -0.00000 
      2      C1_2p_z      C1_2p_z      5.64988       2  -1  -2            0.00000 
      2      C1_2p_x      C1_2p_z      5.64988       2  -1  -2           -0.00001 
      2        C1_2s      C1_2p_x      5.64988       2  -1  -2           -0.00000 
      2      C1_2p_y      C1_2p_x      5.64988       2  -1  -2            0.00000 
      2      C1_2p_z      C1_2p_x      5.64988       2  -1  -2           -0.00001 
      2      C1_2p_x      C1_2p_x      5.64988       2  -1  -2           -0.00000 
      3           C1           C1      5.05341       0   0  -2            0.00576 
      3        C1_2s        C1_2s      5.05341       0   0  -2            0.00036 
      3      C1_2p_y        C1_2s      5.05341       0   0  -2            0.00048 
      3      C1_2p_z        C1_2s      5.05341       0   0  -2            0.00035 
      3      C1_2p_x        C1_2s      5.05341       0   0  -2            0.00048 
      3        C1_2s      C1_2p_y      5.05341       0   0  -2            0.00048 
      3      C1_2p_y      C1_2p_y      5.05341       0   0  -2            0.00025 
      3      C1_2p_z      C1_2p_y      5.05341       0   0  -2            0.00044 
      3      C1_2p_x      C1_2p_y      5.05341       0   0  -2            0.00018 
      3        C1_2s      C1_2p_z      5.05341       0   0  -2            0.00035 
      3      C1_2p_y      C1_2p_z      5.05341       0   0  -2            0.00044 
      3      C1_2p_z      C1_2p_z      5.05341       0   0  -2            0.00018 
      3      C1_2p_x      C1_2p_z      5.05341       0   0  -2            0.00044 
      3        C1_2s      C1_2p_x      5.05341       0   0  -2            0.00048 
      3      C1_2p_y      C1_2p_x      5.05341       0   0  -2            0.00018 
      3      C1_2p_z      C1_2p_x      5.05341       0   0  -2            0.00044 
      3      C1_2p_x      C1_2p_x      5.05341       0   0  -2            0.00025 
      4           C1           C1      4.37638       1   0  -2            0.00120 
      4        C1_2s        C1_2s      4.37638       1   0  -2            0.00020 
      4      C1_2p_y        C1_2s      4.37638       1   0  -2            0.00003 
      4      C1_2p_z        C1_2s      4.37638       1   0  -2            0.00003 
      4      C1_2p_x        C1_2s      4.37638       1   0  -2            0.00011 
      4        C1_2s      C1_2p_y      4.37638       1   0  -2            0.00009 
      4      C1_2p_y      C1_2p_y      4.37638       1   0  -2            0.00002 
      4      C1_2p_z      C1_2p_y      4.37638       1   0  -2           -0.00010 
      4      C1_2p_x      C1_2p_y      4.37638       1   0  -2            0.00002 
      4        C1_2s      C1_2p_z      4.37638       1   0  -2            0.00009 
      4      C1_2p_y      C1_2p_z      4.37638       1   0  -2           -0.00010 
      4      C1_2p_z      C1_2p_z      4.37638       1   0  -2            0.00002 
      4      C1_2p_x      C1_2p_z      4.37638       1   0  -2            0.00002 
      4        C1_2s      C1_2p_x      4.37638       1   0  -2            0.00049 
      4      C1_2p_y      C1_2p_x      4.37638       1   0  -2            0.00001 
      4      C1_2p_z      C1_2p_x      4.37638       1   0  -2            0.00001 
      4      C1_2p_x      C1_2p_x      4.37638       1   0  -2            0.00026 
      5           C1           C1      5.05341       2   0  -2            0.00576 
      5        C1_2s        C1_2s      5.05341       2   0  -2            0.00036 
      5      C1_2p_y        C1_2s      5.05341       2   0  -2            0.00035 
      5      C1_2p_z        C1_2s      5.05341       2   0  -2            0.00048 
      5      C1_2p_x        C1_2s      5.05341       2   0  -2            0.00048 
      5        C1_2s      C1_2p_y      5.05341       2   0  -2            0.00035 
      5      C1_2p_y      C1_2p_y      5.05341       2   0  -2            0.00018 
      5      C1_2p_z      C1_2p_y      5.05341       2   0  -2            0.00044 
      5      C1_2p_x      C1_2p_y      5.05341       2   0  -2            0.00044 
      5        C1_2s      C1_2p_z      5.05341       2   0  -2            0.00048 
      5      C1_2p_y      C1_2p_z      5.05341       2   0  -2            0.00044 
      5      C1_2p_z      C1_2p_z      5.05341       2   0  -2            0.00025 
      5      C1_2p_x      C1_2p_z      5.05341       2   0  -2            0.00018 
      5        C1_2s      C1_2p_x      5.05341       2   0  -2            0.00048 
      5      C1_2p_y      C1_2p_x      5.05341       2   0  -2            0.00044 
      5      C1_2p_z      C1_2p_x      5.05341       2   0  -2            0.00018 
      5      C1_2p_x      C1_2p_x      5.05341       2   0  -2            0.00025 
      6           C1           C1      5.64988      -1   1  -2           -0.00001 
      6        C1_2s        C1_2s      5.64988      -1   1  -2           -0.00000 
      6      C1_2p_y        C1_2s      5.64988      -1   1  -2           -0.00000 
      6      C1_2p_z        C1_2s      5.64988      -1   1  -2            0.00001 
      6      C1_2p_x        C1_2s      5.64988      -1   1  -2           -0.00000 
      6        C1_2s      C1_2p_y      5.64988      -1   1  -2           -0.00000 
      6      C1_2p_y      C1_2p_y      5.64988      -1   1  -2           -0.00000 
      6      C1_2p_z      C1_2p_y      5.64988      -1   1  -2            0.00000 
      6      C1_2p_x      C1_2p_y      5.64988      -1   1  -2           -0.00001 
      6        C1_2s      C1_2p_z      5.64988      -1   1  -2            0.00001 
      6      C1_2p_y      C1_2p_z      5.64988      -1   1  -2            0.00000 
      6      C1_2p_z      C1_2p_z      5.64988      -1   1  -2           -0.00000 
      6      C1_2p_x      C1_2p_z      5.64988      -1   1  -2           -0.00000 
      6        C1_2s      C1_2p_x      5.64988      -1   1  -2           -0.00000 
      6      C1_2p_y      C1_2p_x      5.64988      -1   1  -2           -0.00001 
      6      C1_2p_z      C1_2p_x      5.64988      -1   1  -2           -0.00000 
      6      C1_2p_x      C1_2p_x      5.64988      -1   1  -2            0.00000 
      7           C1           C1      4.37638       0   1  -2            0.00120 
      7        C1_2s        C1_2s      4.37638       0   1  -2            0.00020 
      7      C1_2p_y        C1_2s      4.37638       0   1  -2            0.00011 
      7      C1_2p_z        C1_2s      4.37638       0   1  -2            0.00003 
      7      C1_2p_x        C1_2s      4.37638       0   1  -2            0.00003 
      7        C1_2s      C1_2p_y      4.37638       0   1  -2            0.00049 
      7      C1_2p_y      C1_2p_y      4.37638       0   1  -2            0.00026 
      7      C1_2p_z      C1_2p_y      4.37638       0   1  -2            0.00001 
      7      C1_2p_x      C1_2p_y      4.37638       0   1  -2            0.00001 
      7        C1_2s      C1_2p_z      4.37638       0   1  -2            0.00009 
      7      C1_2p_y      C1_2p_z      4.37638       0   1  -2            0.00002 
      7      C1_2p_z      C1_2p_z      4.37638       0   1  -2            0.00002 
      7      C1_2p_x      C1_2p_z      4.37638       0   1  -2           -0.00010 
      7        C1_2s      C1_2p_x      4.37638       0   1  -2            0.00009 
      7      C1_2p_y      C1_2p_x      4.37638       0   1  -2            0.00002 
      7      C1_2p_z      C1_2p_x      4.37638       0   1  -2           -0.00010 
      7      C1_2p_x      C1_2p_x      4.37638       0   1  -2            0.00002 
      8           C1           C1      4.37638       1   1  -2            0.00120 
      8        C1_2s        C1_2s      4.37638       1   1  -2            0.00020 
      8      C1_2p_y        C1_2s      4.37638       1   1  -2            0.00003 
      8      C1_2p_z        C1_2s      4.37638       1   1  -2            0.00011 
      8      C1_2p_x        C1_2s      4.37638       1   1  -2            0.00003 
      8        C1_2s      C1_2p_y      4.37638       1   1  -2            0.00009 
      8      C1_2p_y      C1_2p_y      4.37638       1   1  -2            0.00002 
      8      C1_2p_z      C1_2p_y      4.37638       1   1  -2            0.00002 
      8      C1_2p_x      C1_2p_y      4.37638       1   1  -2           -0.00010 
      8        C1_2s      C1_2p_z      4.37638       1   1  -2            0.00049 
      8      C1_2p_y      C1_2p_z      4.37638       1   1  -2            0.00001 
      8      C1_2p_z      C1_2p_z      4.37638       1   1  -2            0.00026 
      8      C1_2p_x      C1_2p_z      4.37638       1   1  -2            0.00001 
      8        C1_2s      C1_2p_x      4.37638       1   1  -2            0.00009 
      8      C1_2p_y      C1_2p_x      4.37638       1   1  -2           -0.00010 
      8      C1_2p_z      C1_2p_x      4.37638       1   1  -2            0.00002 
      8      C1_2p_x      C1_2p_x      4.37638       1   1  -2            0.00002 
      9           C1           C1      5.64988       2   1  -2           -0.00001 
      9        C1_2s        C1_2s      5.64988       2   1  -2           -0.00000 
      9      C1_2p_y        C1_2s      5.64988       2   1  -2            0.00001 
      9      C1_2p_z        C1_2s      5.64988       2   1  -2           -0.00000 
      9      C1_2p_x        C1_2s      5.64988       2   1  -2           -0.00000 
      9        C1_2s      C1_2p_y      5.64988       2   1  -2            0.00001 
      9      C1_2p_y      C1_2p_y      5.64988       2   1  -2           -0.00000 
      9      C1_2p_z      C1_2p_y      5.64988       2   1  -2            0.00000 
      9      C1_2p_x      C1_2p_y      5.64988       2   1  -2           -0.00000 
      9        C1_2s      C1_2p_z      5.64988       2   1  -2           -0.00000 
      9      C1_2p_y      C1_2p_z      5.64988       2   1  -2            0.00000 
      9      C1_2p_z      C1_2p_z      5.64988       2   1  -2           -0.00000 
      9      C1_2p_x      C1_2p_z      5.64988       2   1  -2           -0.00001 
      9        C1_2s      C1_2p_x      5.64988       2   1  -2           -0.00000 
      9      C1_2p_y      C1_2p_x      5.64988       2   1  -2           -0.00000 
      9      C1_2p_z      C1_2p_x      5.64988       2   1  -2           -0.00001 
      9      C1_2p_x      C1_2p_x      5.64988       2   1  -2            0.00000 
     10           C1           C1      5.64988      -1   2  -2           -0.00001 
     10        C1_2s        C1_2s      5.64988      -1   2  -2           -0.00000 
     10      C1_2p_y        C1_2s      5.64988      -1   2  -2           -0.00000 
     10      C1_2p_z        C1_2s      5.64988      -1   2  -2           -0.00000 
     10      C1_2p_x        C1_2s      5.64988      -1   2  -2            0.00001 
     10        C1_2s      C1_2p_y      5.64988      -1   2  -2           -0.00000 
     10      C1_2p_y      C1_2p_y      5.64988      -1   2  -2           -0.00000 
     10      C1_2p_z      C1_2p_y      5.64988      -1   2  -2           -0.00001 
     10      C1_2p_x      C1_2p_y      5.64988      -1   2  -2            0.00000 
     10        C1_2s      C1_2p_z      5.64988      -1   2  -2           -0.00000 
     10      C1_2p_y      C1_2p_z      5.64988      -1   2  -2           -0.00001 
     10      C1_2p_z      C1_2p_z      5.64988      -1   2  -2            0.00000 
     10      C1_2p_x      C1_2p_z      5.64988      -1   2  -2           -0.00000 
     10        C1_2s      C1_2p_x      5.64988      -1   2  -2            0.00001 
     10      C1_2p_y      C1_2p_x      5.64988      -1   2  -2            0.00000 
     10      C1_2p_z      C1_2p_x      5.64988      -1   2  -2           -0.00000 
     10      C1_2p_x      C1_2p_x      5.64988      -1   2  -2           -0.00000 
     11           C1           C1      5.05341       0   2  -2            0.00576 
     11        C1_2s        C1_2s      5.05341       0   2  -2            0.00036 
     11      C1_2p_y        C1_2s      5.05341       0   2  -2            0.00048 
     11      C1_2p_z        C1_2s      5.05341       0   2  -2            0.00048 
     11      C1_2p_x        C1_2s      5.05341       0   2  -2            0.00035 
     11        C1_2s      C1_2p_y      5.05341       0   2  -2            0.00048 
     11      C1_2p_y      C1_2p_y      5.05341       0   2  -2            0.00025 
     11      C1_2p_z      C1_2p_y      5.05341       0   2  -2            0.00018 
     11      C1_2p_x      C1_2p_y      5.05341       0   2  -2            0.00044 
     11        C1_2s      C1_2p_z      5.05341       0   2  -2            0.00048 
     11      C1_2p_y      C1_2p_z      5.05341       0   2  -2            0.00018 
     11      C1_2p_z      C1_2p_z      5.05341       0   2  -2            0.00025 
     11      C1_2p_x      C1_2p_z      5.05341       0   2  -2            0.00044 
     11        C1_2s      C1_2p_x      5.05341       0   2  -2            0.00035 
     11      C1_2p_y      C1_2p_x      5.05341       0   2  -2            0.00044 
     11      C1_2p_z      C1_2p_x      5.05341       0   2  -2            0.00044 
     11      C1_2p_x      C1_2p_x      5.05341       0   2  -2            0.00018 
     12           C1           C1      5.64988       1   2  -2           -0.00001 
     12        C1_2s        C1_2s      5.64988       1   2  -2           -0.00000 
     12      C1_2p_y        C1_2s      5.64988       1   2  -2           -0.00000 
     12      C1_2p_z        C1_2s      5.64988       1   2  -2           -0.00000 
     12      C1_2p_x        C1_2s      5.64988       1   2  -2            0.00001 
     12        C1_2s      C1_2p_y      5.64988       1   2  -2           -0.00000 
     12      C1_2p_y      C1_2p_y      5.64988       1   2  -2            0.00000 
     12      C1_2p_z      C1_2p_y      5.64988       1   2  -2           -0.00001 
     12      C1_2p_x      C1_2p_y      5.64988       1   2  -2           -0.00000 
     12        C1_2s      C1_2p_z      5.64988       1   2  -2           -0.00000 
     12      C1_2p_y      C1_2p_z      5.64988       1   2  -2           -0.00001 
     12      C1_2p_z      C1_2p_z      5.64988       1   2  -2           -0.00000 
     12      C1_2p_x      C1_2p_z      5.64988       1   2  -2            0.00000 
     12        C1_2s      C1_2p_x      5.64988       1   2  -2            0.00001 
     12      C1_2p_y      C1_2p_x      5.64988       1   2  -2           -0.00000 
     12      C1_2p_z      C1_2p_x      5.64988       1   2  -2            0.00000 
     12      C1_2p_x      C1_2p_x      5.64988       1   2  -2           -0.00000 
     13           C1           C1      5.64988       1  -2  -1           -0.00001 
     13        C1_2s        C1_2s      5.64988       1  -2  -1           -0.00000 
     13      C1_2p_y        C1_2s      5.64988       1  -2  -1            0.00001 
     13      C1_2p_z        C1_2s      5.64988       1  -2  -1           -0.00000 
     13      C1_2p_x        C1_2s      5.64988       1  -2  -1           -0.00000 
     13        C1_2s      C1_2p_y      5.64988       1  -2  -1            0.00001 
     13      C1_2p_y      C1_2p_y      5.64988       1  -2  -1           -0.00000 
     13      C1_2p_z      C1_2p_y      5.64988       1  -2  -1           -0.00000 
     13      C1_2p_x      C1_2p_y      5.64988       1  -2  -1            0.00000 
     13        C1_2s      C1_2p_z      5.64988       1  -2  -1           -0.00000 
     13      C1_2p_y      C1_2p_z      5.64988       1  -2  -1           -0.00000 
     13      C1_2p_z      C1_2p_z      5.64988       1  -2  -1            0.00000 
     13      C1_2p_x      C1_2p_z      5.64988       1  -2  -1           -0.00001 
     13        C1_2s      C1_2p_x      5.64988       1  -2  -1           -0.00000 
     13      C1_2p_y      C1_2p_x      5.64988       1  -2  -1            0.00000 
     13      C1_2p_z      C1_2p_x      5.64988       1  -2  -1           -0.00001 
     13      C1_2p_x      C1_2p_x      5.64988       1  -2  -1           -0.00000 
     14           C1           C1      5.64988       2  -2  -1           -0.00001 
     14        C1_2s        C1_2s      5.64988       2  -2  -1           -0.00000 
     14      C1_2p_y        C1_2s      5.64988       2  -2  -1           -0.00000 
     14      C1_2p_z        C1_2s      5.64988       2  -2  -1            0.00001 
     14      C1_2p_x        C1_2s      5.64988       2  -2  -1           -0.00000 
     14        C1_2s      C1_2p_y      5.64988       2  -2  -1           -0.00000 
     14      C1_2p_y      C1_2p_y      5.64988       2  -2  -1            0.00000 
     14      C1_2p_z      C1_2p_y      5.64988       2  -2  -1           -0.00000 
     14      C1_2p_x      C1_2p_y      5.64988       2  -2  -1           -0.00001 
     14        C1_2s      C1_2p_z      5.64988       2  -2  -1            0.00001 
     14      C1_2p_y      C1_2p_z      5.64988       2  -2  -1           -0.00000 
     14      C1_2p_z      C1_2p_z      5.64988       2  -2  -1           -0.00000 
     14      C1_2p_x      C1_2p_z      5.64988       2  -2  -1            0.00000 
     14        C1_2s      C1_2p_x      5.64988       2  -2  -1           -0.00000 
     14      C1_2p_y      C1_2p_x      5.64988       2  -2  -1           -0.00001 
     14      C1_2p_z      C1_2p_x      5.64988       2  -2  -1            0.00000 
     14      C1_2p_x      C1_2p_x      5.64988       2  -2  -1           -0.00000 
     15           C1           C1      4.37638       0  -1  -1            0.00120 
     15        C1_2s        C1_2s      4.37638       0  -1  -1            0.00020 
     15      C1_2p_y        C1_2s      4.37638       0  -1  -1            0.00009 
     15      C1_2p_z        C1_2s      4.37638       0  -1  -1            0.00009 
     15      C1_2p_x        C1_2s      4.37638       0  -1  -1            0.00049 
     15        C1_2s      C1_2p_y      4.37638       0  -1  -1            0.00003 
     15      C1_2p_y      C1_2p_y      4.37638       0  -1  -1            0.00002 
     15      C1_2p_z      C1_2p_y      4.37638       0  -1  -1           -0.00010 
     15      C1_2p_x      C1_2p_y      4.37638       0  -1  -1            0.00001 
     15        C1_2s      C1_2p_z      4.37638       0  -1  -1            0.00003 
     15      C1_2p_y      C1_2p_z      4.37638       0  -1  -1           -0.00010 
     15      C1_2p_z      C1_2p_z      4.37638       0  -1  -1            0.00002 
     15      C1_2p_x      C1_2p_z      4.37638       0  -1  -1            0.00001 
     15        C1_2s      C1_2p_x      4.37638       0  -1  -1            0.00011 
     15      C1_2p_y      C1_2p_x      4.37638       0  -1  -1            0.00002 
     15      C1_2p_z      C1_2p_x      4.37638       0  -1  -1            0.00002 
     15      C1_2p_x      C1_2p_x      4.37638       0  -1  -1            0.00026 
     16           C1           C1      3.57330       1  -1  -1            0.00096 
     16        C1_2s        C1_2s      3.57330       1  -1  -1            0.00023 
     16      C1_2p_y        C1_2s      3.57330       1  -1  -1            0.00000 
     16      C1_2p_z        C1_2s      3.57330       1  -1  -1            0.00000 
     16      C1_2p_x        C1_2s      3.57330       1  -1  -1            0.00023 
     16        C1_2s      C1_2p_y      3.57330       1  -1  -1            0.00000 
     16      C1_2p_y      C1_2p_y      3.57330       1  -1  -1            0.00000 
     16      C1_2p_z      C1_2p_y      3.57330       1  -1  -1            0.00000 
     16      C1_2p_x      C1_2p_y      3.57330       1  -1  -1            0.00000 
     16        C1_2s      C1_2p_z      3.57330       1  -1  -1            0.00000 
     16      C1_2p_y      C1_2p_z      3.57330       1  -1  -1            0.00000 
     16      C1_2p_z      C1_2p_z      3.57330       1  -1  -1            0.00000 
     16      C1_2p_x      C1_2p_z      3.57330       1  -1  -1            0.00000 
     16        C1_2s      C1_2p_x      3.57330       1  -1  -1            0.00023 
     16      C1_2p_y      C1_2p_x      3.57330       1  -1  -1            0.00000 
     16      C1_2p_z      C1_2p_x      3.57330       1  -1  -1            0.00000 
     16      C1_2p_x      C1_2p_x      3.57330       1  -1  -1            0.00026 
     17           C1           C1      4.37638       2  -1  -1            0.00120 
     17        C1_2s        C1_2s      4.37638       2  -1  -1            0.00020 
     17      C1_2p_y        C1_2s      4.37638       2  -1  -1            0.00009 
     17      C1_2p_z        C1_2s      4.37638       2  -1  -1            0.00009 
     17      C1_2p_x        C1_2s      4.37638       2  -1  -1            0.00049 
     17        C1_2s      C1_2p_y      4.37638       2  -1  -1            0.00003 
     17      C1_2p_y      C1_2p_y      4.37638       2  -1  -1            0.00002 
     17      C1_2p_z      C1_2p_y      4.37638       2  -1  -1           -0.00010 
     17      C1_2p_x      C1_2p_y      4.37638       2  -1  -1            0.00001 
     17        C1_2s      C1_2p_z      4.37638       2  -1  -1            0.00003 
     17      C1_2p_y      C1_2p_z      4.37638       2  -1  -1           -0.00010 
     17      C1_2p_z      C1_2p_z      4.37638       2  -1  -1            0.00002 
     17      C1_2p_x      C1_2p_z      4.37638       2  -1  -1            0.00001 
     17        C1_2s      C1_2p_x      4.37638       2  -1  -1            0.00011 
     17      C1_2p_y      C1_2p_x      4.37638       2  -1  -1            0.00002 
     17      C1_2p_z      C1_2p_x      4.37638       2  -1  -1            0.00002 
     17      C1_2p_x      C1_2p_x      4.37638       2  -1  -1            0.00026 
     18           C1           C1      4.37638      -1   0  -1            0.00120 
     18        C1_2s        C1_2s      4.37638      -1   0  -1            0.00020 
     18      C1_2p_y        C1_2s      4.37638      -1   0  -1            0.00049 
     18      C1_2p_z        C1_2s      4.37638      -1   0  -1            0.00009 
     18      C1_2p_x        C1_2s      4.37638      -1   0  -1            0.00009 
     18        C1_2s      C1_2p_y      4.37638      -1   0  -1            0.00011 
     18      C1_2p_y      C1_2p_y      4.37638      -1   0  -1            0.00026 
     18      C1_2p_z      C1_2p_y      4.37638      -1   0  -1            0.00002 
     18      C1_2p_x      C1_2p_y      4.37638      -1   0  -1            0.00002 
     18        C1_2s      C1_2p_z      4.37638      -1   0  -1            0.00003 
     18      C1_2p_y      C1_2p_z      4.37638      -1   0  -1            0.00001 
     18      C1_2p_z      C1_2p_z      4.37638      -1   0  -1            0.00002 
     18      C1_2p_x      C1_2p_z      4.37638      -1   0  -1           -0.00010 
     18        C1_2s      C1_2p_x      4.37638      -1   0  -1            0.00003 
     18      C1_2p_y      C1_2p_x      4.37638      -1   0  -1            0.00001 
     18      C1_2p_z      C1_2p_x      4.37638      -1   0  -1           -0.00010 
     18      C1_2p_x      C1_2p_x      4.37638      -1   0  -1            0.00002 
     19           C1           C1      2.52670       0   0  -1           -0.05819 
     19        C1_2s        C1_2s      2.52670       0   0  -1           -0.00028 
     19      C1_2p_y        C1_2s      2.52670       0   0  -1            0.00014 
     19      C1_2p_z        C1_2s      2.52670       0   0  -1           -0.00598 
     19      C1_2p_x        C1_2s      2.52670       0   0  -1            0.00014 
     19        C1_2s      C1_2p_y      2.52670       0   0  -1            0.00014 
     19      C1_2p_y      C1_2p_y      2.52670       0   0  -1           -0.00700 
     19      C1_2p_z      C1_2p_y      2.52670       0   0  -1            0.00001 
     19      C1_2p_x      C1_2p_y      2.52670       0   0  -1           -0.00629 
     19        C1_2s      C1_2p_z      2.52670       0   0  -1           -0.00598 
     19      C1_2p_y      C1_2p_z      2.52670       0   0  -1            0.00001 
     19      C1_2p_z      C1_2p_z      2.52670       0   0  -1           -0.01995 
     19      C1_2p_x      C1_2p_z      2.52670       0   0  -1            0.00001 
     19        C1_2s      C1_2p_x      2.52670       0   0  -1            0.00014 
     19      C1_2p_y      C1_2p_x      2.52670       0   0  -1           -0.00629 
     19      C1_2p_z      C1_2p_x      2.52670       0   0  -1            0.00001 
     19      C1_2p_x      C1_2p_x      2.52670       0   0  -1           -0.00700 
     20           C1           C1      2.52670       1   0  -1           -0.05819 
     20        C1_2s        C1_2s      2.52670       1   0  -1           -0.00028 
     20      C1_2p_y        C1_2s      2.52670       1   0  -1           -0.00598 
     20      C1_2p_z        C1_2s      2.52670       1   0  -1            0.00014 
     20      C1_2p_x        C1_2s      2.52670       1   0  -1            0.00014 
     20        C1_2s      C1_2p_y      2.52670       1   0  -1           -0.00598 
     20      C1_2p_y      C1_2p_y      2.52670       1   0  -1           -0.01995 
     20      C1_2p_z      C1_2p_y      2.52670       1   0  -1            0.00001 
     20      C1_2p_x      C1_2p_y      2.52670       1   0  -1            0.00001 
     20        C1_2s      C1_2p_z      2.52670       1   0  -1            0.00014 
     20      C1_2p_y      C1_2p_z      2.52670       1   0  -1            0.00001 
     20      C1_2p_z      C1_2p_z      2.52670       1   0  -1           -0.00700 
     20      C1_2p_x      C1_2p_z      2.52670       1   0  -1           -0.00629 
     20        C1_2s      C1_2p_x      2.52670       1   0  -1            0.00014 
     20      C1_2p_y      C1_2p_x      2.52670       1   0  -1            0.00001 
     20      C1_2p_z      C1_2p_x      2.52670       1   0  -1           -0.00629 
     20      C1_2p_x      C1_2p_x      2.52670       1   0  -1           -0.00700 
     21           C1           C1      4.37638       2   0  -1            0.00120 
     21        C1_2s        C1_2s      4.37638       2   0  -1            0.00020 
     21      C1_2p_y        C1_2s      4.37638       2   0  -1            0.00009 
     21      C1_2p_z        C1_2s      4.37638       2   0  -1            0.00049 
     21      C1_2p_x        C1_2s      4.37638       2   0  -1            0.00009 
     21        C1_2s      C1_2p_y      4.37638       2   0  -1            0.00003 
     21      C1_2p_y      C1_2p_y      4.37638       2   0  -1            0.00002 
     21      C1_2p_z      C1_2p_y      4.37638       2   0  -1            0.00001 
     21      C1_2p_x      C1_2p_y      4.37638       2   0  -1           -0.00010 
     21        C1_2s      C1_2p_z      4.37638       2   0  -1            0.00011 
     21      C1_2p_y      C1_2p_z      4.37638       2   0  -1            0.00002 
     21      C1_2p_z      C1_2p_z      4.37638       2   0  -1            0.00026 
     21      C1_2p_x      C1_2p_z      4.37638       2   0  -1            0.00002 
     21        C1_2s      C1_2p_x      4.37638       2   0  -1            0.00003 
     21      C1_2p_y      C1_2p_x      4.37638       2   0  -1           -0.00010 
     21      C1_2p_z      C1_2p_x      4.37638       2   0  -1            0.00001 
     21      C1_2p_x      C1_2p_x      4.37638       2   0  -1            0.00002 
     22           C1           C1      5.64988      -2   1  -1           -0.00001 
     22        C1_2s        C1_2s      5.64988      -2   1  -1           -0.00000 
     22      C1_2p_y        C1_2s      5.64988      -2   1  -1           -0.00000 