  COHP#       atomMU       atomNU     distance     translation      ICOHP (at) eF   for spin  1
      1          Na2          Na1      4.05366       0   0   0           -0.01654 
      1       Na2_3s       Na1_3s      4.05366       0   0   0           -0.01591 
      1     Na2_2p_y       Na1_3s      4.05366       0   0   0            0.00000 
      1     Na2_2p_z       Na1_3s      4.05366       0   0   0           -0.00030 
      1     Na2_2p_x       Na1_3s      4.05366       0   0   0           -0.00002 
      1       Na2_3s     Na1_2p_y      4.05366       0   0   0            0.00000 
      1     Na2_2p_y     Na1_2p_y      4.05366       0   0   0           -0.00000 
      1     Na2_2p_z     Na1_2p_y      4.05366       0   0   0            0.00000 
      1     Na2_2p_x     Na1_2p_y      4.05366       0   0   0            0.00000 
      1       Na2_3s     Na1_2p_z      4.05366       0   0   0           -0.00030 
      1     Na2_2p_y     Na1_2p_z      4.05366       0   0   0            0.00000 
      1     Na2_2p_z     Na1_2p_z      4.05366       0   0   0            0.00000 
      1     Na2_2p_x     Na1_2p_z      4.05366       0   0   0            0.00000 
      1       Na2_3s     Na1_2p_x      4.05366       0   0   0           -0.00002 
      1     Na2_2p_y     Na1_2p_x      4.05366       0   0   0            0.00000 
      1     Na2_2p_z     Na1_2p_x      4.05366       0   0   0            0.00000 
      1     Na2_2p_x     Na1_2p_x      4.05366       0   0   0            0.00000 
      2          Na3          Na1      3.99809       0   0   0           -0.01746 
      2       Na3_3s       Na1_3s      3.99809       0   0   0           -0.01748 
      2     Na3_2p_y       Na1_3s      3.99809       0   0   0            0.00001 
      2     Na3_2p_z       Na1_3s      3.99809       0   0   0            0.00000 
      2     Na3_2p_x       Na1_3s      3.99809       0   0   0            0.00000 
      2       Na3_3s     Na1_2p_y      3.99809       0   0   0            0.00001 
      2     Na3_2p_y     Na1_2p_y      3.99809       0   0   0           -0.00000 
      2     Na3_2p_z     Na1_2p_y      3.99809       0   0   0           -0.00000 
      2     Na3_2p_x     Na1_2p_y      3.99809       0   0   0           -0.00000 
      2       Na3_3s     Na1_2p_z      3.99809       0   0   0            0.00000 
      2     Na3_2p_y     Na1_2p_z      3.99809       0   0   0           -0.00000 
      2     Na3_2p_z     Na1_2p_z      3.99809       0   0   0           -0.00000 
      2     Na3_2p_x     Na1_2p_z      3.99809       0   0   0            0.00000 
      2       Na3_3s     Na1_2p_x      3.99809       0   0   0            0.00000 
      2     Na3_2p_y     Na1_2p_x      3.99809       0   0   0           -0.00000 
      2     Na3_2p_z     Na1_2p_x      3.99809       0   0   0            0.00000 
      2     Na3_2p_x     Na1_2p_x      3.99809       0   0   0           -0.00000 
      3          Na3          Na1      5.19893       1   0   0           -0.00014 
      3       Na3_3s       Na1_3s      5.19893       1   0   0           -0.00015 
      3     Na3_2p_y       Na1_3s      5.19893       1   0   0            0.00000 
      3     Na3_2p_z       Na1_3s      5.19893       1   0   0            0.00000 
      3     Na3_2p_x       Na1_3s      5.19893       1   0   0            0.00000 
      3       Na3_3s     Na1_2p_y      5.19893       1   0   0            0.00000 
      3     Na3_2p_y     Na1_2p_y      5.19893       1   0   0            0.00000 
      3     Na3_2p_z     Na1_2p_y      5.19893       1   0   0           -0.00000 
      3     Na3_2p_x     Na1_2p_y      5.19893       1   0   0           -0.00000 
      3       Na3_3s     Na1_2p_z      5.19893       1   0   0            0.00000 
      3     Na3_2p_y     Na1_2p_z      5.19893       1   0   0           -0.00000 
      3     Na3_2p_z     Na1_2p_z      5.19893       1   0   0           -0.00000 
      3     Na3_2p_x     Na1_2p_z      5.19893       1   0   0           -0.00000 
      3       Na3_3s     Na1_2p_x      5.19893       1   0   0            0.00000 
      3     Na3_2p_y     Na1_2p_x      5.19893       1   0   0           -0.00000 
      3     Na3_2p_z     Na1_2p_x      5.19893       1   0   0           -0.00000 
      3     Na3_2p_x     Na1_2p_x      5.19893       1   0   0           -0.00000 
      4          Na3          Na1      3.27677       0   1   0           -0.04421 
      4       Na3_3s       Na1_3s      3.27677       0   1   0           -0.03905 
      4     Na3_2p_y       Na1_3s      3.27677       0   1   0           -0.00135 
      4     Na3_2p_z       Na1_3s      3.27677       0   1   0           -0.00021 
      4     Na3_2p_x       Na1_3s      3.27677       0   1   0           -0.00102 
      4       Na3_3s     Na1_2p_y      3.27677       0   1   0           -0.00135 
      4     Na3_2p_y     Na1_2p_y      3.27677       0   1   0            0.00000 
      4     Na3_2p_z     Na1_2p_y      3.27677       0   1   0            0.00000 
      4     Na3_2p_x     Na1_2p_y      3.27677       0   1   0           -0.00000 
      4       Na3_3s     Na1_2p_z      3.27677       0   1   0           -0.00021 
      4     Na3_2p_y     Na1_2p_z      3.27677       0   1   0            0.00000 
      4     Na3_2p_z     Na1_2p_z      3.27677       0   1   0           -0.00000 
      4     Na3_2p_x     Na1_2p_z      3.27677       0   1   0           -0.00000 
      4       Na3_3s     Na1_2p_x      3.27677       0   1   0           -0.00103 
      4     Na3_2p_y     Na1_2p_x      3.27677       0   1   0           -0.00000 
      4     Na3_2p_z     Na1_2p_x      3.27677       0   1   0           -0.00000 
      4     Na3_2p_x     Na1_2p_x      3.27677       0   1   0            0.00000 
      5          Na4          Na1      5.66910       0   0   0           -0.00031 
      5       Na4_3s       Na1_3s      5.66910       0   0   0           -0.00029 
      5     Na4_2p_y       Na1_3s      5.66910       0   0   0            0.00000 
      5     Na4_2p_z       Na1_3s      5.66910       0   0   0           -0.00000 
      5     Na4_2p_x       Na1_3s      5.66910       0   0   0           -0.00000 
      5       Na4_3s     Na1_2p_y      5.66910       0   0   0           -0.00000 
      5     Na4_2p_y     Na1_2p_y      5.66910       0   0   0           -0.00000 
      5     Na4_2p_z     Na1_2p_y      5.66910       0   0   0            0.00000 
      5     Na4_2p_x     Na1_2p_y      5.66910       0   0   0            0.00000 
      5       Na4_3s     Na1_2p_z      5.66910       0   0   0           -0.00001 
      5     Na4_2p_y     Na1_2p_z      5.66910       0   0   0            0.00000 
      5     Na4_2p_z     Na1_2p_z      5.66910       0   0   0           -0.00000 
      5     Na4_2p_x     Na1_2p_z      5.66910       0   0   0            0.00000 
      5       Na4_3s     Na1_2p_x      5.66910       0   0   0           -0.00000 
      5     Na4_2p_y     Na1_2p_x      5.66910       0   0   0           -0.00000 
      5     Na4_2p_z     Na1_2p_x      5.66910       0   0   0            0.00000 
      5     Na4_2p_x     Na1_2p_x      5.66910       0   0   0            0.00000 
      6          Na4          Na1      5.66910       0   0   1           -0.00031 
      6       Na4_3s       Na1_3s      5.66910       0   0   1           -0.00029 
      6     Na4_2p_y       Na1_3s      5.66910       0   0   1           -0.00000 
      6     Na4_2p_z       Na1_3s      5.66910       0   0   1           -0.00001 
      6     Na4_2p_x       Na1_3s      5.66910       0   0   1           -0.00000 
      6       Na4_3s     Na1_2p_y      5.66910       0   0   1            0.00000 
      6     Na4_2p_y     Na1_2p_y      5.66910       0   0   1           -0.00000 
      6     Na4_2p_z     Na1_2p_y      5.66910       0   0   1            0.00000 
      6     Na4_2p_x     Na1_2p_y      5.66910       0   0   1           -0.00000 
      6       Na4_3s     Na1_2p_z      5.66910       0   0   1           -0.00000 
      6     Na4_2p_y     Na1_2p_z      5.66910       0   0   1            0.00000 
      6     Na4_2p_z     Na1_2p_z      5.66910       0   0   1           -0.00000 
      6     Na4_2p_x     Na1_2p_z      5.66910       0   0   1            0.00000 
      6       Na4_3s     Na1_2p_x      5.66910       0   0   1           -0.00000 
      6     Na4_2p_y     Na1_2p_x      5.66910       0   0   1            0.00000 
      6     Na4_2p_z     Na1_2p_x      5.66910       0   0   1            0.00000 
      6     Na4_2p_x     Na1_2p_x      5.66910       0   0   1            0.00000 
      7          Na5          Na1      5.43088       0  -1   0           -0.00247 
      7       Na5_3s       Na1_3s      5.43088       0  -1   0           -0.00224 
      7     Na5_2p_y       Na1_3s      5.43088       0  -1   0           -0.00005 
      7     Na5_2p_z       Na1_3s      5.43088       0  -1   0           -0.00001 
      7     Na5_2p_x       Na1_3s      5.43088       0  -1   0           -0.00003 
      7       Na5_3s     Na1_2p_y      5.43088       0  -1   0            0.00000 
      7     Na5_2p_y     Na1_2p_y      5.43088       0  -1   0           -0.00000 
      7     Na5_2p_z     Na1_2p_y      5.43088       0  -1   0           -0.00000 
      7     Na5_2p_x     Na1_2p_y      5.43088       0  -1   0            0.00000 
      7       Na5_3s     Na1_2p_z      5.43088       0  -1   0           -0.00002 
      7     Na5_2p_y     Na1_2p_z      5.43088       0  -1   0           -0.00000 
      7     Na5_2p_z     Na1_2p_z      5.43088       0  -1   0           -0.00000 
      7     Na5_2p_x     Na1_2p_z      5.43088       0  -1   0           -0.00000 
      7       Na5_3s     Na1_2p_x      5.43088       0  -1   0           -0.00012 
      7     Na5_2p_y     Na1_2p_x      5.43088       0  -1   0           -0.00000 
      7     Na5_2p_z     Na1_2p_x      5.43088       0  -1   0           -0.00000 
      7     Na5_2p_x     Na1_2p_x      5.43088       0  -1   0            0.00000 
      8          Na5          Na1      3.89177       0   0   0           -0.02137 
      8       Na5_3s       Na1_3s      3.89177       0   0   0           -0.01996 
      8     Na5_2p_y       Na1_3s      3.89177       0   0   0           -0.00014 
      8     Na5_2p_z       Na1_3s      3.89177       0   0   0           -0.00038 
      8     Na5_2p_x       Na1_3s      3.89177       0   0   0           -0.00028 
      8       Na5_3s     Na1_2p_y      3.89177       0   0   0           -0.00016 
      8     Na5_2p_y     Na1_2p_y      3.89177       0   0   0            0.00000 
      8     Na5_2p_z     Na1_2p_y      3.89177       0   0   0           -0.00000 
      8     Na5_2p_x     Na1_2p_y      3.89177       0   0   0           -0.00000 
      8       Na5_3s     Na1_2p_z      3.89177       0   0   0           -0.00044 
      8     Na5_2p_y     Na1_2p_z      3.89177       0   0   0           -0.00000 
      8     Na5_2p_z     Na1_2p_z      3.89177       0   0   0           -0.00000 
      8     Na5_2p_x     Na1_2p_z      3.89177       0   0   0           -0.00000 
      8       Na5_3s     Na1_2p_x      3.89177       0   0   0           -0.00002 
      8     Na5_2p_y     Na1_2p_x      3.89177       0   0   0           -0.00000 
      8     Na5_2p_z     Na1_2p_x      3.89177       0   0   0           -0.00000 
      8     Na5_2p_x     Na1_2p_x      3.89177       0   0   0           -0.00000 
      9          Na6          Na1      5.82331       1  -1   0           -0.00292 
      9       Na6_3s       Na1_3s      5.82331       1  -1   0           -0.00270 
      9     Na6_2p_y       Na1_3s      5.82331       1  -1   0            0.00000 
      9     Na6_2p_z       Na1_3s      5.82331       1  -1   0           -0.00000 
      9     Na6_2p_x       Na1_3s      5.82331       1  -1   0           -0.00010 
      9       Na6_3s     Na1_2p_y      5.82331       1  -1   0           -0.00003 
      9     Na6_2p_y     Na1_2p_y      5.82331       1  -1   0            0.00000 
      9     Na6_2p_z     Na1_2p_y      5.82331       1  -1   0            0.00000 
      9     Na6_2p_x     Na1_2p_y      5.82331       1  -1   0           -0.00000 
      9       Na6_3s     Na1_2p_z      5.82331       1  -1   0           -0.00003 
      9     Na6_2p_y     Na1_2p_z      5.82331       1  -1   0           -0.00000 
      9     Na6_2p_z     Na1_2p_z      5.82331       1  -1   0           -0.00000 
      9     Na6_2p_x     Na1_2p_z      5.82331       1  -1   0           -0.00000 
      9       Na6_3s     Na1_2p_x      5.82331       1  -1   0           -0.00005 
      9     Na6_2p_y     Na1_2p_x      5.82331       1  -1   0            0.00000 
      9     Na6_2p_z     Na1_2p_x      5.82331       1  -1   0            0.00000 
      9     Na6_2p_x     Na1_2p_x      5.82331       1  -1   0           -0.00000 
     10          Na6          Na1      3.43681       0   0   0           -0.03328 
     10       Na6_3s       Na1_3s      3.43681       0   0   0           -0.02908 
     10     Na6_2p_y       Na1_3s      3.43681       0   0   0           -0.00128 
     10     Na6_2p_z       Na1_3s      3.43681       0   0   0           -0.00009 
     10     Na6_2p_x       Na1_3s      3.43681       0   0   0           -0.00056 
     10       Na6_3s     Na1_2p_y      3.43681       0   0   0           -0.00155 
     10     Na6_2p_y     Na1_2p_y      3.43681       0   0   0            0.00000 
     10     Na6_2p_z     Na1_2p_y      3.43681       0   0   0           -0.00000 
     10     Na6_2p_x     Na1_2p_y      3.43681       0   0   0           -0.00000 
     10       Na6_3s     Na1_2p_z      3.43681       0   0   0           -0.00017 
     10     Na6_2p_y     Na1_2p_z      3.43681       0   0   0           -0.00000 
     10     Na6_2p_z     Na1_2p_z      3.43681       0   0   0           -0.00000 
     10     Na6_2p_x     Na1_2p_z      3.43681       0   0   0           -0.00000 
     10       Na6_3s     Na1_2p_x      3.43681       0   0   0           -0.00056 
     10     Na6_2p_y     Na1_2p_x      3.43681       0   0   0           -0.00000 
     10     Na6_2p_z     Na1_2p_x      3.43681       0   0   0           -0.00000 
     10     Na6_2p_x     Na1_2p_x      3.43681       0   0   0           -0.00000 
     11          Na6          Na1      3.70018       1   0   0           -0.02591 
     11       Na6_3s       Na1_3s      3.70018       1   0   0           -0.02405 
     11     Na6_2p_y       Na1_3s      3.70018       1   0   0           -0.00061 
     11     Na6_2p_z       Na1_3s      3.70018       1   0   0           -0.00003 
     11     Na6_2p_x       Na1_3s      3.70018       1   0   0           -0.00034 
     11       Na6_3s     Na1_2p_y      3.70018       1   0   0           -0.00047 
     11     Na6_2p_y     Na1_2p_y      3.70018       1   0   0           -0.00000 
     11     Na6_2p_z     Na1_2p_y      3.70018       1   0   0           -0.00000 
     11     Na6_2p_x     Na1_2p_y      3.70018       1   0   0           -0.00000 
     11       Na6_3s     Na1_2p_z      3.70018       1   0   0           -0.00019 
     11     Na6_2p_y     Na1_2p_z      3.70018       1   0   0           -0.00000 
     11     Na6_2p_z     Na1_2p_z      3.70018       1   0   0           -0.00000 
     11     Na6_2p_x     Na1_2p_z      3.70018       1   0   0            0.00000 
     11       Na6_3s     Na1_2p_x      3.70018       1   0   0           -0.00022 
     11     Na6_2p_y     Na1_2p_x      3.70018       1   0   0           -0.00000 
     11     Na6_2p_z     Na1_2p_x      3.70018       1   0   0            0.00000 
     11     Na6_2p_x     Na1_2p_x      3.70018       1   0   0           -0.00000 
     12          Na6          Na1      5.90673       0   1   0           -0.00005 
     12       Na6_3s       Na1_3s      5.90673       0   1   0            0.00000 
     12     Na6_2p_y       Na1_3s      5.90673       0   1   0            0.00000 
     12     Na6_2p_z       Na1_3s      5.90673       0   1   0           -0.00000 
     12     Na6_2p_x       Na1_3s      5.90673       0   1   0           -0.00001 
     12       Na6_3s     Na1_2p_y      5.90673       0   1   0           -0.00003 
     12     Na6_2p_y     Na1_2p_y      5.90673       0   1   0           -0.00000 
     12     Na6_2p_z     Na1_2p_y      5.90673       0   1   0           -0.00000 
     12     Na6_2p_x     Na1_2p_y      5.90673       0   1   0           -0.00000 
     12       Na6_3s     Na1_2p_z      5.90673       0   1   0           -0.00001 
     12     Na6_2p_y     Na1_2p_z      5.90673       0   1   0            0.00000 
     12     Na6_2p_z     Na1_2p_z      5.90673       0   1   0           -0.00000 
     12     Na6_2p_x     Na1_2p_z      5.90673       0   1   0           -0.00000 
     12       Na6_3s     Na1_2p_x      5.90673       0   1   0           -0.00000 
     12     Na6_2p_y     Na1_2p_x      5.90673       0   1   0            0.00000 
     12     Na6_2p_z     Na1_2p_x      5.90673       0   1   0            0.00000 
     12     Na6_2p_x     Na1_2p_x      5.90673       0   1   0           -0.00000 
     13          Na7          Na1      3.99842       0   1   0           -0.01424 
     13       Na7_3s       Na1_3s      3.99842       0   1   0           -0.01394 
     13     Na7_2p_y       Na1_3s      3.99842       0   1   0           -0.00001 
     13     Na7_2p_z       Na1_3s      3.99842       0   1   0           -0.00018 
     13     Na7_2p_x       Na1_3s      3.99842       0   1   0           -0.00000 
     13       Na7_3s     Na1_2p_y      3.99842       0   1   0            0.00000 
     13     Na7_2p_y     Na1_2p_y      3.99842       0   1   0           -0.00000 
     13     Na7_2p_z     Na1_2p_y      3.99842       0   1   0           -0.00000 
     13     Na7_2p_x     Na1_2p_y      3.99842       0   1   0            0.00000 
     13       Na7_3s     Na1_2p_z      3.99842       0   1   0           -0.00011 
     13     Na7_2p_y     Na1_2p_z      3.99842       0   1   0            0.00000 
     13     Na7_2p_z     Na1_2p_z      3.99842       0   1   0           -0.00000 
     13     Na7_2p_x     Na1_2p_z      3.99842       0   1   0           -0.00000 
     13       Na7_3s     Na1_2p_x      3.99842       0   1   0           -0.00000 
     13     Na7_2p_y     Na1_2p_x      3.99842       0   1   0            0.00000 
     13     Na7_2p_z     Na1_2p_x      3.99842       0   1   0           -0.00000 
     13     Na7_2p_x     Na1_2p_x      3.99842       0   1   0           -0.00000 
     14          Na8          Na1      3.48298       0   0   0           -0.03018 
     14       Na8_3s       Na1_3s      3.48298       0   0   0           -0.02609 
     14     Na8_2p_y       Na1_3s      3.48298       0   0   0           -0.00015 
     14     Na8_2p_z       Na1_3s      3.48298       0   0   0           -0.00041 
     14     Na8_2p_x       Na1_3s      3.48298       0   0   0           -0.00140 
     14       Na8_3s     Na1_2p_y      3.48298       0   0   0           -0.00008 
     14     Na8_2p_y     Na1_2p_y      3.48298       0   0   0           -0.00000 
     14     Na8_2p_z     Na1_2p_y      3.48298       0   0   0           -0.00000 
     14     Na8_2p_x     Na1_2p_y      3.48298       0   0   0           -0.00000 
     14       Na8_3s     Na1_2p_z      3.48298       0   0   0           -0.00062 
     14     Na8_2p_y     Na1_2p_z      3.48298       0   0   0           -0.00000 
     14     Na8_2p_z     Na1_2p_z      3.48298       0   0   0           -0.00000 
     14     Na8_2p_x     Na1_2p_z      3.48298       0   0   0           -0.00000 
     14       Na8_3s     Na1_2p_x      3.48298       0   0   0           -0.00144 
     14     Na8_2p_y     Na1_2p_x      3.48298       0   0   0            0.00000 
     14     Na8_2p_z     Na1_2p_x      3.48298       0   0   0           -0.00000 
     14     Na8_2p_x     Na1_2p_x      3.48298       0   0   0           -0.00000 
     15          Na8          Na1      4.23542      -1   1   0           -0.00992 
     15       Na8_3s       Na1_3s      4.23542      -1   1   0           -0.00983 
     15     Na8_2p_y       Na1_3s      4.23542      -1   1   0            0.00000 
     15     Na8_2p_z       Na1_3s      4.23542      -1   1   0            0.00001 
     15     Na8_2p_x       Na1_3s      4.23542      -1   1   0           -0.00003 
     15       Na8_3s     Na1_2p_y      4.23542      -1   1   0           -0.00000 
     15     Na8_2p_y     Na1_2p_y      4.23542      -1   1   0           -0.00000 
     15     Na8_2p_z     Na1_2p_y      4.23542      -1   1   0            0.00000 
     15     Na8_2p_x     Na1_2p_y      4.23542      -1   1   0           -0.00000 
     15       Na8_3s     Na1_2p_z      4.23542      -1   1   0           -0.00001 
     15     Na8_2p_y     Na1_2p_z      4.23542      -1   1   0           -0.00000 
     15     Na8_2p_z     Na1_2p_z      4.23542      -1   1   0           -0.00000 
     15     Na8_2p_x     Na1_2p_z      4.23542      -1   1   0           -0.00000 
     15       Na8_3s     Na1_2p_x      4.23542      -1   1   0           -0.00005 
     15     Na8_2p_y     Na1_2p_x      4.23542      -1   1   0            0.00000 
     15     Na8_2p_z     Na1_2p_x      4.23542      -1   1   0           -0.00000 
     15     Na8_2p_x     Na1_2p_x      4.23542      -1   1   0           -0.00000 
     16          Na8          Na1      5.60477       0   1   0           -0.00011 
     16       Na8_3s       Na1_3s      5.60477       0   1   0           -0.00007 
     16     Na8_2p_y       Na1_3s      5.60477       0   1   0           -0.00000 
     16     Na8_2p_z       Na1_3s      5.60477       0   1   0           -0.00000 
     16     Na8_2p_x       Na1_3s      5.60477       0   1   0           -0.00000 
     16       Na8_3s     Na1_2p_y      5.60477       0   1   0           -0.00001 
     16     Na8_2p_y     Na1_2p_y      5.60477       0   1   0           -0.00000 
     16     Na8_2p_z     Na1_2p_y      5.60477       0   1   0            0.00000 
     16     Na8_2p_x     Na1_2p_y      5.60477       0   1   0            0.00000 
     16       Na8_3s     Na1_2p_z      5.60477       0   1   0           -0.00000 
     16     Na8_2p_y     Na1_2p_z      5.60477       0   1   0           -0.00000 
     16     Na8_2p_z     Na1_2p_z      5.60477       0   1   0           -0.00000 
     16     Na8_2p_x     Na1_2p_z      5.60477       0   1   0            0.00000 
     16       Na8_3s     Na1_2p_x      5.60477       0   1   0           -0.00002 
     16     Na8_2p_y     Na1_2p_x      5.60477       0   1   0           -0.00000 
     16     Na8_2p_z     Na1_2p_x      5.60477       0   1   0           -0.00000 
     16     Na8_2p_x     Na1_2p_x      5.60477       0   1   0           -0.00000 
     17          Si9          Na1      4.86885       0  -1   0           -0.01437 
     17       Si9_3s       Na1_3s      4.86885       0  -1   0           -0.01888 
     17     Si9_3p_y       Na1_3s      4.86885       0  -1   0           -0.00001 
     17     Si9_3p_z       Na1_3s      4.86885       0  -1   0            0.00196 
     17     Si9_3p_x       Na1_3s      4.86885       0  -1   0            0.00416 
     17       Si9_3s     Na1_2p_y      4.86885       0  -1   0           -0.00012 
     17     Si9_3p_y     Na1_2p_y      4.86885       0  -1   0           -0.00028 
     17     Si9_3p_z     Na1_2p_y      4.86885       0  -1   0           -0.00023 
     17     Si9_3p_x     Na1_2p_y      4.86885       0  -1   0           -0.00009 
     17       Si9_3s     Na1_2p_z      4.86885       0  -1   0           -0.00013 
     17     Si9_3p_y     Na1_2p_z      4.86885       0  -1   0           -0.00001 
     17     Si9_3p_z     Na1_2p_z      4.86885       0  -1   0           -0.00003 
     17     Si9_3p_x     Na1_2p_z      4.86885       0  -1   0           -0.00006 
     17       Si9_3s     Na1_2p_x      4.86885       0  -1   0           -0.00027 
     17     Si9_3p_y     Na1_2p_x      4.86885       0  -1   0           -0.00002 
     17     Si9_3p_z     Na1_2p_x      4.86885       0  -1   0           -0.00018 
     17     Si9_3p_x     Na1_2p_x      4.86885       0  -1   0           -0.00019 
     18          Si9          Na1      4.34093      -1   0   0           -0.01155 
     18       Si9_3s       Na1_3s      4.34093      -1   0   0            0.00016 
     18     Si9_3p_y       Na1_3s      4.34093      -1   0   0           -0.00241 
     18     Si9_3p_z       Na1_3s      4.34093      -1   0   0           -0.00818 
     18     Si9_3p_x       Na1_3s      4.34093      -1   0   0           -0.00113 
     18       Si9_3s     Na1_2p_y      4.34093      -1   0   0           -0.00001 
     18     Si9_3p_y     Na1_2p_y      4.34093      -1   0   0           -0.00000 
     18     Si9_3p_z     Na1_2p_y      4.34093      -1   0   0            0.00000 
     18     Si9_3p_x     Na1_2p_y      4.34093      -1   0   0            0.00001 
     18       Si9_3s     Na1_2p_z      4.34093      -1   0   0           -0.00006 
     18     Si9_3p_y     Na1_2p_z      4.34093      -1   0   0            0.00000 
     18     Si9_3p_z     Na1_2p_z      4.34093      -1   0   0            0.00004 
     18     Si9_3p_x     Na1_2p_z      4.34093      -1   0   0            0.00002 
     18       Si9_3s     Na1_2p_x      4.34093      -1   0   0           -0.00002 
     18     Si9_3p_y     Na1_2p_x      4.34093      -1   0   0            0.00001 
     18     Si9_3p_z     Na1_2p_x      4.34093      -1   0   0            0.00004 
     18     Si9_3p_x     Na1_2p_x      4.34093      -1   0   0           -0.00003 
     19          Si9          Na1      5.78935       0   0   0           -0.00143 
     19       Si9_3s       Na1_3s      5.78935       0   0   0           -0.00131 
     19     Si9_3p_y       Na1_3s      5.78935       0   0   0           -0.00002 
     19     Si9_3p_z       Na1_3s      5.78935       0   0   0            0.00002 
     19     Si9_3p_x       Na1_3s      5.78935       0   0   0           -0.00008 
     19       Si9_3s     Na1_2p_y      5.78935       0   0   0           -0.00000 
     19     Si9_3p_y     Na1_2p_y      5.78935       0   0   0           -0.00001 
     19     Si9_3p_z     Na1_2p_y      5.78935       0   0   0           -0.00000 
     19     Si9_3p_x     Na1_2p_y      5.78935       0   0   0            0.00000 
     19       Si9_3s     Na1_2p_z      5.78935       0   0   0           -0.00000 
     19     Si9_3p_y     Na1_2p_z      5.78935       0   0   0           -0.00001 
     19     Si9_3p_z     Na1_2p_z      5.78935       0   0   0            0.00000 
     19     Si9_3p_x     Na1_2p_z      5.78935       0   0   0           -0.00000 
     19       Si9_3s     Na1_2p_x      5.78935       0   0   0           -0.00000 
     19     Si9_3p_y     Na1_2p_x      5.78935       0   0   0           -0.00000 
     19     Si9_3p_z     Na1_2p_x      5.78935       0   0   0           -0.00000 
     19     Si9_3p_x     Na1_2p_x      5.78935       0   0   0           -0.00000 
     20         Si10          Na1      3.77363       1   0   0           -0.01102 
     20      Si10_3s       Na1_3s      3.77363       1   0   0           -0.00487 
     20    Si10_3p_y       Na1_3s      3.77363       1   0   0           -0.00056 
     20    Si10_3p_z       Na1_3s      3.77363       1   0   0            0.00001 
     20    Si10_3p_x       Na1_3s      3.77363       1   0   0           -0.00588 
     20      Si10_3s     Na1_2p_y      3.77363       1   0   0            0.00000 
     20    Si10_3p_y     Na1_2p_y      3.77363       1   0   0            0.00001 
     20    Si10_3p_z     Na1_2p_y      3.77363       1   0   0           -0.00000 
     20    Si10_3p_x     Na1_2p_y      3.77363       1   0   0            0.00000 
     20      Si10_3s     Na1_2p_z      3.77363       1   0   0           -0.00001 
     20    Si10_3p_y     Na1_2p_z      3.77363       1   0   0           -0.00000 
     20    Si10_3p_z     Na1_2p_z      3.77363       1   0   0           -0.00000 
     20    Si10_3p_x     Na1_2p_z      3.77363       1   0   0            0.00000 
     20      Si10_3s     Na1_2p_x      3.77363       1   0   0           -0.00011 
     20    Si10_3p_y     Na1_2p_x      3.77363       1   0   0           -0.00002 
     20    Si10_3p_z     Na1_2p_x      3.77363       1   0   0            0.00005 
     20    Si10_3p_x     Na1_2p_x      3.77363       1   0   0            0.00038 
     21         Si10          Na1      3.06239       0   1   0           -0.24607 
     21      Si10_3s       Na1_3s      3.06239       0   1   0           -0.12219 
     21    Si10_3p_y       Na1_3s      3.06239       0   1   0           -0.00010 
     21    Si10_3p_z       Na1_3s      3.06239       0   1   0           -0.01221 
     21    Si10_3p_x       Na1_3s      3.06239       0   1   0           -0.10541 
     21      Si10_3s     Na1_2p_y      3.06239       0   1   0           -0.00002 
     21    Si10_3p_y     Na1_2p_y      3.06239       0   1   0           -0.00010 
     21    Si10_3p_z     Na1_2p_y      3.06239       0   1   0            0.00000 
     21    Si10_3p_x     Na1_2p_y      3.06239       0   1   0           -0.00001 
     21      Si10_3s     Na1_2p_z      3.06239       0   1   0            0.00004 
     21    Si10_3p_y     Na1_2p_z      3.06239       0   1   0           -0.00000 
     21    Si10_3p_z     Na1_2p_z      3.06239       0   1   0           -0.00002 
     21    Si10_3p_x     Na1_2p_z      3.06239       0   1   0           -0.00072 
     21      Si10_3s     Na1_2p_x      3.06239       0   1   0            0.00090 
     21    Si10_3p_y     Na1_2p_x      3.06239       0   1   0           -0.00007 
     21    Si10_3p_z     Na1_2p_x      3.06239       0   1   0           -0.00046 
     21    Si10_3p_x     Na1_2p_x      3.06239       0   1   0           -0.00569 
     22         Si11          Na1      5.28102       0   1   0           -0.00256 
     22      Si11_3s       Na1_3s      5.28102       0   1   0           -0.00083 
     22    Si11_3p_y       Na1_3s      5.28102       0   1   0           -0.00054 