  COHP#       atomMU       atomNU     distance     translation      ICOHP (at) eF   for spin  1
      1          Na1          Na1      5.69169       1  -1  -1           -0.00017 
      1       Na1_3s       Na1_3s      5.69169       1  -1  -1            0.00022 
      1     Na1_2p_y       Na1_3s      5.69169       1  -1  -1           -0.00000 
      1     Na1_2p_z       Na1_3s      5.69169       1  -1  -1           -0.00000 
      1     Na1_2p_x       Na1_3s      5.69169       1  -1  -1           -0.00020 
      1       Na1_3s     Na1_2p_y      5.69169       1  -1  -1           -0.00000 
      1     Na1_2p_y     Na1_2p_y      5.69169       1  -1  -1           -0.00000 
      1     Na1_2p_z     Na1_2p_y      5.69169       1  -1  -1           -0.00000 
      1     Na1_2p_x     Na1_2p_y      5.69169       1  -1  -1           -0.00000 
      1       Na1_3s     Na1_2p_z      5.69169       1  -1  -1           -0.00000 
      1     Na1_2p_y     Na1_2p_z      5.69169       1  -1  -1           -0.00000 
      1     Na1_2p_z     Na1_2p_z      5.69169       1  -1  -1           -0.00000 
      1     Na1_2p_x     Na1_2p_z      5.69169       1  -1  -1           -0.00000 
      1       Na1_3s     Na1_2p_x      5.69169       1  -1  -1           -0.00020 
      1     Na1_2p_y     Na1_2p_x      5.69169       1  -1  -1           -0.00000 
      1     Na1_2p_z     Na1_2p_x      5.69169       1  -1  -1           -0.00000 
      1     Na1_2p_x     Na1_2p_x      5.69169       1  -1  -1            0.00000 
      2          Na1          Na1      4.02464       0   0  -1           -0.01462 
      2       Na1_3s       Na1_3s      4.02464       0   0  -1           -0.01287 
      2     Na1_2p_y       Na1_3s      4.02464       0   0  -1           -0.00044 
      2     Na1_2p_z       Na1_3s      4.02464       0   0  -1           -0.00000 
      2     Na1_2p_x       Na1_3s      4.02464       0   0  -1           -0.00044 
      2       Na1_3s     Na1_2p_y      4.02464       0   0  -1           -0.00044 
      2     Na1_2p_y     Na1_2p_y      4.02464       0   0  -1            0.00000 
      2     Na1_2p_z     Na1_2p_y      4.02464       0   0  -1           -0.00000 
      2     Na1_2p_x     Na1_2p_y      4.02464       0   0  -1           -0.00000 
      2       Na1_3s     Na1_2p_z      4.02464       0   0  -1           -0.00000 
      2     Na1_2p_y     Na1_2p_z      4.02464       0   0  -1           -0.00000 
      2     Na1_2p_z     Na1_2p_z      4.02464       0   0  -1           -0.00000 
      2     Na1_2p_x     Na1_2p_z      4.02464       0   0  -1           -0.00000 
      2       Na1_3s     Na1_2p_x      4.02464       0   0  -1           -0.00044 
      2     Na1_2p_y     Na1_2p_x      4.02464       0   0  -1           -0.00000 
      2     Na1_2p_z     Na1_2p_x      4.02464       0   0  -1           -0.00000 
      2     Na1_2p_x     Na1_2p_x      4.02464       0   0  -1            0.00000 
      3          Na1          Na1      4.02464       1   0  -1           -0.01461 
      3       Na1_3s       Na1_3s      4.02464       1   0  -1           -0.01287 
      3     Na1_2p_y       Na1_3s      4.02464       1   0  -1           -0.00000 
      3     Na1_2p_z       Na1_3s      4.02464       1   0  -1           -0.00044 
      3     Na1_2p_x       Na1_3s      4.02464       1   0  -1           -0.00044 
      3       Na1_3s     Na1_2p_y      4.02464       1   0  -1           -0.00000 
      3     Na1_2p_y     Na1_2p_y      4.02464       1   0  -1           -0.00000 
      3     Na1_2p_z     Na1_2p_y      4.02464       1   0  -1           -0.00000 
      3     Na1_2p_x     Na1_2p_y      4.02464       1   0  -1           -0.00000 
      3       Na1_3s     Na1_2p_z      4.02464       1   0  -1           -0.00044 
      3     Na1_2p_y     Na1_2p_z      4.02464       1   0  -1           -0.00000 
      3     Na1_2p_z     Na1_2p_z      4.02464       1   0  -1            0.00000 
      3     Na1_2p_x     Na1_2p_z      4.02464       1   0  -1           -0.00000 
      3       Na1_3s     Na1_2p_x      4.02464       1   0  -1           -0.00044 
      3     Na1_2p_y     Na1_2p_x      4.02464       1   0  -1           -0.00000 
      3     Na1_2p_z     Na1_2p_x      4.02464       1   0  -1           -0.00000 
      3     Na1_2p_x     Na1_2p_x      4.02464       1   0  -1            0.00000 
      4          Na1          Na1      5.69169      -1   1  -1           -0.00017 
      4       Na1_3s       Na1_3s      5.69169      -1   1  -1            0.00022 
      4     Na1_2p_y       Na1_3s      5.69169      -1   1  -1           -0.00020 
      4     Na1_2p_z       Na1_3s      5.69169      -1   1  -1           -0.00000 
      4     Na1_2p_x       Na1_3s      5.69169      -1   1  -1           -0.00000 
      4       Na1_3s     Na1_2p_y      5.69169      -1   1  -1           -0.00020 
      4     Na1_2p_y     Na1_2p_y      5.69169      -1   1  -1            0.00000 
      4     Na1_2p_z     Na1_2p_y      5.69169      -1   1  -1           -0.00000 
      4     Na1_2p_x     Na1_2p_y      5.69169      -1   1  -1           -0.00000 
      4       Na1_3s     Na1_2p_z      5.69169      -1   1  -1           -0.00000 
      4     Na1_2p_y     Na1_2p_z      5.69169      -1   1  -1           -0.00000 
      4     Na1_2p_z     Na1_2p_z      5.69169      -1   1  -1           -0.00000 
      4     Na1_2p_x     Na1_2p_z      5.69169      -1   1  -1           -0.00000 
      4       Na1_3s     Na1_2p_x      5.69169      -1   1  -1           -0.00000 
      4     Na1_2p_y     Na1_2p_x      5.69169      -1   1  -1           -0.00000 
      4     Na1_2p_z     Na1_2p_x      5.69169      -1   1  -1           -0.00000 
      4     Na1_2p_x     Na1_2p_x      5.69169      -1   1  -1           -0.00000 
      5          Na1          Na1      4.02464       0   1  -1           -0.01461 
      5       Na1_3s       Na1_3s      4.02464       0   1  -1           -0.01287 
      5     Na1_2p_y       Na1_3s      4.02464       0   1  -1           -0.00044 
      5     Na1_2p_z       Na1_3s      4.02464       0   1  -1           -0.00044 
      5     Na1_2p_x       Na1_3s      4.02464       0   1  -1           -0.00000 
      5       Na1_3s     Na1_2p_y      4.02464       0   1  -1           -0.00044 
      5     Na1_2p_y     Na1_2p_y      4.02464       0   1  -1            0.00000 
      5     Na1_2p_z     Na1_2p_y      4.02464       0   1  -1           -0.00000 
      5     Na1_2p_x     Na1_2p_y      4.02464       0   1  -1           -0.00000 
      5       Na1_3s     Na1_2p_z      4.02464       0   1  -1           -0.00044 
      5     Na1_2p_y     Na1_2p_z      4.02464       0   1  -1           -0.00000 
      5     Na1_2p_z     Na1_2p_z      4.02464       0   1  -1            0.00000 
      5     Na1_2p_x     Na1_2p_z      4.02464       0   1  -1           -0.00000 
      5       Na1_3s     Na1_2p_x      4.02464       0   1  -1           -0.00000 
      5     Na1_2p_y     Na1_2p_x      4.02464       0   1  -1           -0.00000 
      5     Na1_2p_z     Na1_2p_x      4.02464       0   1  -1           -0.00000 
      5     Na1_2p_x     Na1_2p_x      4.02464       0   1  -1           -0.00000 
      6          Na1          Na1      5.69169       1   1  -1           -0.00017 
      6       Na1_3s       Na1_3s      5.69169       1   1  -1            0.00022 
      6     Na1_2p_y       Na1_3s      5.69169       1   1  -1           -0.00000 
      6     Na1_2p_z       Na1_3s      5.69169       1   1  -1           -0.00020 
      6     Na1_2p_x       Na1_3s      5.69169       1   1  -1           -0.00000 
      6       Na1_3s     Na1_2p_y      5.69169       1   1  -1           -0.00000 
      6     Na1_2p_y     Na1_2p_y      5.69169       1   1  -1           -0.00000 
      6     Na1_2p_z     Na1_2p_y      5.69169       1   1  -1           -0.00000 
      6     Na1_2p_x     Na1_2p_y      5.69169       1   1  -1           -0.00000 
      6       Na1_3s     Na1_2p_z      5.69169       1   1  -1           -0.00020 
      6     Na1_2p_y     Na1_2p_z      5.69169       1   1  -1           -0.00000 
      6     Na1_2p_z     Na1_2p_z      5.69169       1   1  -1            0.00000 
      6     Na1_2p_x     Na1_2p_z      5.69169       1   1  -1           -0.00000 
      6       Na1_3s     Na1_2p_x      5.69169       1   1  -1           -0.00000 
      6     Na1_2p_y     Na1_2p_x      5.69169       1   1  -1           -0.00000 
      6     Na1_2p_z     Na1_2p_x      5.69169       1   1  -1           -0.00000 
      6     Na1_2p_x     Na1_2p_x      5.69169       1   1  -1           -0.00000 
      7          Na1          Na1      4.02464       0  -1   0           -0.01462 
      7       Na1_3s       Na1_3s      4.02464       0  -1   0           -0.01287 
      7     Na1_2p_y       Na1_3s      4.02464       0  -1   0           -0.00000 
      7     Na1_2p_z       Na1_3s      4.02464       0  -1   0           -0.00044 
      7     Na1_2p_x       Na1_3s      4.02464       0  -1   0           -0.00044 
      7       Na1_3s     Na1_2p_y      4.02464       0  -1   0           -0.00000 
      7     Na1_2p_y     Na1_2p_y      4.02464       0  -1   0           -0.00000 
      7     Na1_2p_z     Na1_2p_y      4.02464       0  -1   0           -0.00000 
      7     Na1_2p_x     Na1_2p_y      4.02464       0  -1   0           -0.00000 
      7       Na1_3s     Na1_2p_z      4.02464       0  -1   0           -0.00044 
      7     Na1_2p_y     Na1_2p_z      4.02464       0  -1   0           -0.00000 
      7     Na1_2p_z     Na1_2p_z      4.02464       0  -1   0            0.00000 
      7     Na1_2p_x     Na1_2p_z      4.02464       0  -1   0           -0.00000 
      7       Na1_3s     Na1_2p_x      4.02464       0  -1   0           -0.00044 
      7     Na1_2p_y     Na1_2p_x      4.02464       0  -1   0           -0.00000 
      7     Na1_2p_z     Na1_2p_x      4.02464       0  -1   0           -0.00000 
      7     Na1_2p_x     Na1_2p_x      4.02464       0  -1   0            0.00000 
      8          Na1          Na1      4.02464       1  -1   0           -0.01461 
      8       Na1_3s       Na1_3s      4.02464       1  -1   0           -0.01287 
      8     Na1_2p_y       Na1_3s      4.02464       1  -1   0           -0.00044 
      8     Na1_2p_z       Na1_3s      4.02464       1  -1   0           -0.00000 
      8     Na1_2p_x       Na1_3s      4.02464       1  -1   0           -0.00044 
      8       Na1_3s     Na1_2p_y      4.02464       1  -1   0           -0.00044 
      8     Na1_2p_y     Na1_2p_y      4.02464       1  -1   0            0.00000 
      8     Na1_2p_z     Na1_2p_y      4.02464       1  -1   0           -0.00000 
      8     Na1_2p_x     Na1_2p_y      4.02464       1  -1   0           -0.00000 
      8       Na1_3s     Na1_2p_z      4.02464       1  -1   0           -0.00000 
      8     Na1_2p_y     Na1_2p_z      4.02464       1  -1   0           -0.00000 
      8     Na1_2p_z     Na1_2p_z      4.02464       1  -1   0           -0.00000 
      8     Na1_2p_x     Na1_2p_z      4.02464       1  -1   0           -0.00000 
      8       Na1_3s     Na1_2p_x      4.02464       1  -1   0           -0.00044 
      8     Na1_2p_y     Na1_2p_x      4.02464       1  -1   0           -0.00000 
      8     Na1_2p_z     Na1_2p_x      4.02464       1  -1   0           -0.00000 
      8     Na1_2p_x     Na1_2p_x      4.02464       1  -1   0            0.00000 
      9          Na1          Na1      4.02464      -1   0   0           -0.01462 
      9       Na1_3s       Na1_3s      4.02464      -1   0   0           -0.01287 
      9     Na1_2p_y       Na1_3s      4.02464      -1   0   0           -0.00044 
      9     Na1_2p_z       Na1_3s      4.02464      -1   0   0           -0.00044 
      9     Na1_2p_x       Na1_3s      4.02464      -1   0   0           -0.00000 
      9       Na1_3s     Na1_2p_y      4.02464      -1   0   0           -0.00044 
      9     Na1_2p_y     Na1_2p_y      4.02464      -1   0   0            0.00000 
      9     Na1_2p_z     Na1_2p_y      4.02464      -1   0   0           -0.00000 
      9     Na1_2p_x     Na1_2p_y      4.02464      -1   0   0           -0.00000 
      9       Na1_3s     Na1_2p_z      4.02464      -1   0   0           -0.00044 
      9     Na1_2p_y     Na1_2p_z      4.02464      -1   0   0           -0.00000 
      9     Na1_2p_z     Na1_2p_z      4.02464      -1   0   0            0.00000 
      9     Na1_2p_x     Na1_2p_z      4.02464      -1   0   0           -0.00000 
      9       Na1_3s     Na1_2p_x      4.02464      -1   0   0           -0.00000 
      9     Na1_2p_y     Na1_2p_x      4.02464      -1   0   0           -0.00000 
      9     Na1_2p_z     Na1_2p_x      4.02464      -1   0   0           -0.00000 
      9     Na1_2p_x     Na1_2p_x      4.02464      -1   0   0           -0.00000 
     10          Na1          Na1      4.02464       1   0   0           -0.01462 
     10       Na1_3s       Na1_3s      4.02464       1   0   0           -0.01287 
     10     Na1_2p_y       Na1_3s      4.02464       1   0   0           -0.00044 
     10     Na1_2p_z       Na1_3s      4.02464       1   0   0           -0.00044 
     10     Na1_2p_x       Na1_3s      4.02464       1   0   0           -0.00000 
     10       Na1_3s     Na1_2p_y      4.02464       1   0   0           -0.00044 
     10     Na1_2p_y     Na1_2p_y      4.02464       1   0   0            0.00000 
     10     Na1_2p_z     Na1_2p_y      4.02464       1   0   0           -0.00000 
     10     Na1_2p_x     Na1_2p_y      4.02464       1   0   0           -0.00000 
     10       Na1_3s     Na1_2p_z      4.02464       1   0   0           -0.00044 
     10     Na1_2p_y     Na1_2p_z      4.02464       1   0   0           -0.00000 
     10     Na1_2p_z     Na1_2p_z      4.02464       1   0   0            0.00000 
     10     Na1_2p_x     Na1_2p_z      4.02464       1   0   0           -0.00000 
     10       Na1_3s     Na1_2p_x      4.02464       1   0   0           -0.00000 
     10     Na1_2p_y     Na1_2p_x      4.02464       1   0   0           -0.00000 
     10     Na1_2p_z     Na1_2p_x      4.02464       1   0   0           -0.00000 
     10     Na1_2p_x     Na1_2p_x      4.02464       1   0   0           -0.00000 
     11          Na1          Na1      4.02464      -1   1   0           -0.01461 
     11       Na1_3s       Na1_3s      4.02464      -1   1   0           -0.01287 
     11     Na1_2p_y       Na1_3s      4.02464      -1   1   0           -0.00044 
     11     Na1_2p_z       Na1_3s      4.02464      -1   1   0           -0.00000 
     11     Na1_2p_x       Na1_3s      4.02464      -1   1   0           -0.00044 
     11       Na1_3s     Na1_2p_y      4.02464      -1   1   0           -0.00044 
     11     Na1_2p_y     Na1_2p_y      4.02464      -1   1   0            0.00000 
     11     Na1_2p_z     Na1_2p_y      4.02464      -1   1   0           -0.00000 
     11     Na1_2p_x     Na1_2p_y      4.02464      -1   1   0           -0.00000 
     11       Na1_3s     Na1_2p_z      4.02464      -1   1   0           -0.00000 
     11     Na1_2p_y     Na1_2p_z      4.02464      -1   1   0           -0.00000 
     11     Na1_2p_z     Na1_2p_z      4.02464      -1   1   0           -0.00000 
     11     Na1_2p_x     Na1_2p_z      4.02464      -1   1   0           -0.00000 
     11       Na1_3s     Na1_2p_x      4.02464      -1   1   0           -0.00044 
     11     Na1_2p_y     Na1_2p_x      4.02464      -1   1   0           -0.00000 
     11     Na1_2p_z     Na1_2p_x      4.02464      -1   1   0           -0.00000 
     11     Na1_2p_x     Na1_2p_x      4.02464      -1   1   0            0.00000 
     12          Na1          Na1      4.02464       0   1   0           -0.01462 
     12       Na1_3s       Na1_3s      4.02464       0   1   0           -0.01287 
     12     Na1_2p_y       Na1_3s      4.02464       0   1   0           -0.00000 
     12     Na1_2p_z       Na1_3s      4.02464       0   1   0           -0.00044 
     12     Na1_2p_x       Na1_3s      4.02464       0   1   0           -0.00044 
     12       Na1_3s     Na1_2p_y      4.02464       0   1   0           -0.00000 
     12     Na1_2p_y     Na1_2p_y      4.02464       0   1   0           -0.00000 
     12     Na1_2p_z     Na1_2p_y      4.02464       0   1   0           -0.00000 
     12     Na1_2p_x     Na1_2p_y      4.02464       0   1   0           -0.00000 
     12       Na1_3s     Na1_2p_z      4.02464       0   1   0           -0.00044 
     12     Na1_2p_y     Na1_2p_z      4.02464       0   1   0           -0.00000 
     12     Na1_2p_z     Na1_2p_z      4.02464       0   1   0            0.00000 
     12     Na1_2p_x     Na1_2p_z      4.02464       0   1   0           -0.00000 
     12       Na1_3s     Na1_2p_x      4.02464       0   1   0           -0.00044 
     12     Na1_2p_y     Na1_2p_x      4.02464       0   1   0           -0.00000 
     12     Na1_2p_z     Na1_2p_x      4.02464       0   1   0           -0.00000 
     12     Na1_2p_x     Na1_2p_x      4.02464       0   1   0            0.00000 
     13          Na1          Na1      5.69169      -1  -1   1           -0.00017 
     13       Na1_3s       Na1_3s      5.69169      -1  -1   1            0.00022 
     13     Na1_2p_y       Na1_3s      5.69169      -1  -1   1           -0.00000 
     13     Na1_2p_z       Na1_3s      5.69169      -1  -1   1           -0.00020 
     13     Na1_2p_x       Na1_3s      5.69169      -1  -1   1           -0.00000 
     13       Na1_3s     Na1_2p_y      5.69169      -1  -1   1           -0.00000 
     13     Na1_2p_y     Na1_2p_y      5.69169      -1  -1   1           -0.00000 
     13     Na1_2p_z     Na1_2p_y      5.69169      -1  -1   1           -0.00000 
     13     Na1_2p_x     Na1_2p_y      5.69169      -1  -1   1           -0.00000 
     13       Na1_3s     Na1_2p_z      5.69169      -1  -1   1           -0.00020 
     13     Na1_2p_y     Na1_2p_z      5.69169      -1  -1   1           -0.00000 
     13     Na1_2p_z     Na1_2p_z      5.69169      -1  -1   1            0.00000 
     13     Na1_2p_x     Na1_2p_z      5.69169      -1  -1   1           -0.00000 
     13       Na1_3s     Na1_2p_x      5.69169      -1  -1   1           -0.00000 
     13     Na1_2p_y     Na1_2p_x      5.69169      -1  -1   1           -0.00000 
     13     Na1_2p_z     Na1_2p_x      5.69169      -1  -1   1           -0.00000 
     13     Na1_2p_x     Na1_2p_x      5.69169      -1  -1   1           -0.00000 
     14          Na1          Na1      4.02464       0  -1   1           -0.01461 
     14       Na1_3s       Na1_3s      4.02464       0  -1   1           -0.01287 
     14     Na1_2p_y       Na1_3s      4.02464       0  -1   1           -0.00044 
     14     Na1_2p_z       Na1_3s      4.02464       0  -1   1           -0.00044 
     14     Na1_2p_x       Na1_3s      4.02464       0  -1   1           -0.00000 
     14       Na1_3s     Na1_2p_y      4.02464       0  -1   1           -0.00044 
     14     Na1_2p_y     Na1_2p_y      4.02464       0  -1   1            0.00000 
     14     Na1_2p_z     Na1_2p_y      4.02464       0  -1   1           -0.00000 
     14     Na1_2p_x     Na1_2p_y      4.02464       0  -1   1           -0.00000 
     14       Na1_3s     Na1_2p_z      4.02464       0  -1   1           -0.00044 
     14     Na1_2p_y     Na1_2p_z      4.02464       0  -1   1           -0.00000 
     14     Na1_2p_z     Na1_2p_z      4.02464       0  -1   1            0.00000 
     14     Na1_2p_x     Na1_2p_z      4.02464       0  -1   1           -0.00000 
     14       Na1_3s     Na1_2p_x      4.02464       0  -1   1           -0.00000 
     14     Na1_2p_y     Na1_2p_x      4.02464       0  -1   1           -0.00000 
     14     Na1_2p_z     Na1_2p_x      4.02464       0  -1   1           -0.00000 
     14     Na1_2p_x     Na1_2p_x      4.02464       0  -1   1           -0.00000 
     15          Na1          Na1      5.69169       1  -1   1           -0.00017 
     15       Na1_3s       Na1_3s      5.69169       1  -1   1            0.00022 
     15     Na1_2p_y       Na1_3s      5.69169       1  -1   1           -0.00020 
     15     Na1_2p_z       Na1_3s      5.69169       1  -1   1           -0.00000 
     15     Na1_2p_x       Na1_3s      5.69169       1  -1   1           -0.00000 
     15       Na1_3s     Na1_2p_y      5.69169       1  -1   1           -0.00020 
     15     Na1_2p_y     Na1_2p_y      5.69169       1  -1   1            0.00000 
     15     Na1_2p_z     Na1_2p_y      5.69169       1  -1   1           -0.00000 
     15     Na1_2p_x     Na1_2p_y      5.69169       1  -1   1           -0.00000 
     15       Na1_3s     Na1_2p_z      5.69169       1  -1   1           -0.00000 
     15     Na1_2p_y     Na1_2p_z      5.69169       1  -1   1           -0.00000 
     15     Na1_2p_z     Na1_2p_z      5.69169       1  -1   1           -0.00000 
     15     Na1_2p_x     Na1_2p_z      5.69169       1  -1   1           -0.00000 
     15       Na1_3s     Na1_2p_x      5.69169       1  -1   1           -0.00000 
     15     Na1_2p_y     Na1_2p_x      5.69169       1  -1   1           -0.00000 
     15     Na1_2p_z     Na1_2p_x      5.69169       1  -1   1           -0.00000 
     15     Na1_2p_x     Na1_2p_x      5.69169       1  -1   1           -0.00000 
     16          Na1          Na1      4.02464      -1   0   1           -0.01461 
     16       Na1_3s       Na1_3s      4.02464      -1   0   1           -0.01287 
     16     Na1_2p_y       Na1_3s      4.02464      -1   0   1           -0.00000 
     16     Na1_2p_z       Na1_3s      4.02464      -1   0   1           -0.00044 
     16     Na1_2p_x       Na1_3s      4.02464      -1   0   1           -0.00044 
     16       Na1_3s     Na1_2p_y      4.02464      -1   0   1           -0.00000 
     16     Na1_2p_y     Na1_2p_y      4.02464      -1   0   1           -0.00000 
     16     Na1_2p_z     Na1_2p_y      4.02464      -1   0   1           -0.00000 
     16     Na1_2p_x     Na1_2p_y      4.02464      -1   0   1           -0.00000 
     16       Na1_3s     Na1_2p_z      4.02464      -1   0   1           -0.00044 
     16     Na1_2p_y     Na1_2p_z      4.02464      -1   0   1           -0.00000 
     16     Na1_2p_z     Na1_2p_z      4.02464      -1   0   1            0.00000 
     16     Na1_2p_x     Na1_2p_z      4.02464      -1   0   1           -0.00000 
     16       Na1_3s     Na1_2p_x      4.02464      -1   0   1           -0.00044 
     16     Na1_2p_y     Na1_2p_x      4.02464      -1   0   1           -0.00000 
     16     Na1_2p_z     Na1_2p_x      4.02464      -1   0   1           -0.00000 
     16     Na1_2p_x     Na1_2p_x      4.02464      -1   0   1            0.00000 
     17          Na1          Na1      4.02464       0   0   1           -0.01462 
     17       Na1_3s       Na1_3s      4.02464       0   0   1           -0.01287 
     17     Na1_2p_y       Na1_3s      4.02464       0   0   1           -0.00044 
     17     Na1_2p_z       Na1_3s      4.02464       0   0   1           -0.00000 
     17     Na1_2p_x       Na1_3s      4.02464       0   0   1           -0.00044 
     17       Na1_3s     Na1_2p_y      4.02464       0   0   1           -0.00044 
     17     Na1_2p_y     Na1_2p_y      4.02464       0   0   1            0.00000 
     17     Na1_2p_z     Na1_2p_y      4.02464       0   0   1           -0.00000 
     17     Na1_2p_x     Na1_2p_y      4.02464       0   0   1           -0.00000 
     17       Na1_3s     Na1_2p_z      4.02464       0   0   1           -0.00000 
     17     Na1_2p_y     Na1_2p_z      4.02464       0   0   1           -0.00000 
     17     Na1_2p_z     Na1_2p_z      4.02464       0   0   1           -0.00000 
     17     Na1_2p_x     Na1_2p_z      4.02464       0   0   1           -0.00000 
     17       Na1_3s     Na1_2p_x      4.02464       0   0   1           -0.00044 
     17     Na1_2p_y     Na1_2p_x      4.02464       0   0   1           -0.00000 
     17     Na1_2p_z     Na1_2p_x      4.02464       0   0   1           -0.00000 
     17     Na1_2p_x     Na1_2p_x      4.02464       0   0   1            0.00000 
     18          Na1          Na1      5.69169      -1   1   1           -0.00017 
     18       Na1_3s       Na1_3s      5.69169      -1   1   1            0.00022 
     18     Na1_2p_y       Na1_3s      5.69169      -1   1   1           -0.00000 
     18     Na1_2p_z       Na1_3s      5.69169      -1   1   1           -0.00000 
     18     Na1_2p_x       Na1_3s      5.69169      -1   1   1           -0.00020 
     18       Na1_3s     Na1_2p_y      5.69169      -1   1   1           -0.00000 
     18     Na1_2p_y     Na1_2p_y      5.69169      -1   1   1           -0.00000 
     18     Na1_2p_z     Na1_2p_y      5.69169      -1   1   1           -0.00000 
     18     Na1_2p_x     Na1_2p_y      5.69169      -1   1   1           -0.00000 
     18       Na1_3s     Na1_2p_z      5.69169      -1   1   1           -0.00000 
     18     Na1_2p_y     Na1_2p_z      5.69169      -1   1   1           -0.00000 
     18     Na1_2p_z     Na1_2p_z      5.69169      -1   1   1           -0.00000 
     18     Na1_2p_x     Na1_2p_z      5.69169      -1   1   1           -0.00000 
     18       Na1_3s     Na1_2p_x      5.69169      -1   1   1           -0.00020 
     18     Na1_2p_y     Na1_2p_x      5.69169      -1   1   1           -0.00000 
     18     Na1_2p_z     Na1_2p_x      5.69169      -1   1   1           -0.00000 
     18     Na1_2p_x     Na1_2p_x      5.69169      -1   1   1            0.00000 
     19          Cl2          Na1      4.92915       1   1  -1           -0.00176 
     19       Cl2_3s       Na1_3s      4.92915       1   1  -1           -0.00084 
     19     Cl2_3p_y       Na1_3s      4.92915       1   1  -1           -0.00028 
     19     Cl2_3p_z       Na1_3s      4.92915       1   1  -1           -0.00028 
     19     Cl2_3p_x       Na1_3s      4.92915       1   1  -1           -0.00028 
     19       Cl2_3s     Na1_2p_y      4.92915       1   1  -1           -0.00001 
     19     Cl2_3p_y     Na1_2p_y      4.92915       1   1  -1           -0.00000 
     19     Cl2_3p_z     Na1_2p_y      4.92915       1   1  -1           -0.00001 
     19     Cl2_3p_x     Na1_2p_y      4.92915       1   1  -1           -0.00001 
     19       Cl2_3s     Na1_2p_z      4.92915       1   1  -1           -0.00001 
     19     Cl2_3p_y     Na1_2p_z      4.92915       1   1  -1           -0.00001 
     19     Cl2_3p_z     Na1_2p_z      4.92915       1   1  -1           -0.00000 
     19     Cl2_3p_x     Na1_2p_z      4.92915       1   1  -1           -0.00001 
     19       Cl2_3s     Na1_2p_x      4.92915       1   1  -1           -0.00001 
     19     Cl2_3p_y     Na1_2p_x      4.92915       1   1  -1           -0.00001 
     19     Cl2_3p_z     Na1_2p_x      4.92915       1   1  -1           -0.00001 
     19     Cl2_3p_x     Na1_2p_x      4.92915       1   1  -1           -0.00000 
     20          Cl2          Na1      4.92915       0   0   0           -0.00177 
     20       Cl2_3s       Na1_3s      4.92915       0   0   0           -0.00084 
     20     Cl2_3p_y       Na1_3s      4.92915       0   0   0           -0.00029 
     20     Cl2_3p_z       Na1_3s      4.92915       0   0   0           -0.00029 
     20     Cl2_3p_x       Na1_3s      4.92915       0   0   0           -0.00029 
     20       Cl2_3s     Na1_2p_y      4.92915       0   0   0           -0.00001 
     20     Cl2_3p_y     Na1_2p_y      4.92915       0   0   0           -0.00000 
     20     Cl2_3p_z     Na1_2p_y      4.92915       0   0   0           -0.00001 
     20     Cl2_3p_x     Na1_2p_y      4.92915       0   0   0           -0.00001 
     20       Cl2_3s     Na1_2p_z      4.92915       0   0   0           -0.00001 
     20     Cl2_3p_y     Na1_2p_z      4.92915       0   0   0           -0.00001 
     20     Cl2_3p_z     Na1_2p_z      4.92915       0   0   0           -0.00000 
     20     Cl2_3p_x     Na1_2p_z      4.92915       0   0   0           -0.00001 
     20       Cl2_3s     Na1_2p_x      4.92915       0   0   0           -0.00001 
     20     Cl2_3p_y     Na1_2p_x      4.92915       0   0   0           -0.00001 
     20     Cl2_3p_z     Na1_2p_x      4.92915       0   0   0           -0.00001 
     20     Cl2_3p_x     Na1_2p_x      4.92915       0   0   0           -0.00000 
     21          Cl2          Na1      2.84585       1   0   0           -0.28270 
     21       Cl2_3s       Na1_3s      2.84585       1   0   0           -0.16250 
     21     Cl2_3p_y       Na1_3s      2.84585       1   0   0           -0.00000 
     21     Cl2_3p_z       Na1_3s      2.84585       1   0   0           -0.00000 
     21     Cl2_3p_x       Na1_3s      2.84585       1   0   0           -0.12030 
     21       Cl2_3s     Na1_2p_y      2.84585       1   0   0           -0.00000 
     21     Cl2_3p_y     Na1_2p_y      2.84585       1   0   0            0.00006 
     21     Cl2_3p_z     Na1_2p_y      2.84585       1   0   0            0.00000 
     21     Cl2_3p_x     Na1_2p_y      2.84585       1   0   0            0.00000 
     21       Cl2_3s     Na1_2p_z      2.84585       1   0   0           -0.00000 
     21     Cl2_3p_y     Na1_2p_z      2.84585       1   0   0            0.00000 
     21     Cl2_3p_z     Na1_2p_z      2.84585       1   0   0            0.00006 
     21     Cl2_3p_x     Na1_2p_z      2.84585       1   0   0            0.00000 
     21       Cl2_3s     Na1_2p_x      2.84585       1   0   0            0.00016 
     21     Cl2_3p_y     Na1_2p_x      2.84585       1   0   0           -0.00000 
     21     Cl2_3p_z     Na1_2p_x      2.84585       1   0   0           -0.00000 
     21     Cl2_3p_x     Na1_2p_x      2.84585       1   0   0           -0.00018 
     22          Cl2          Na1      4.92915       2   0   0           -0.00176 
     22       Cl2_3s       Na1_3s      4.92915       2   0   0           -0.00084 
     22     Cl2_3p_y       Na1_3s      4.92915       2   0   0           -0.00028 