  COHP#       atomMU       atomNU     distance     translation      ICOHP (at) eF   for spin  1
      1          Na1          Na1      5.69169       0   0  -1           -0.00033 
      1       Na1_3s       Na1_3s      5.69169       0   0  -1            0.00037 
      1     Na1_2p_y       Na1_3s      5.69169       0   0  -1           -0.00000 
      1     Na1_2p_z       Na1_3s      5.69169       0   0  -1           -0.00035 
      1     Na1_2p_x       Na1_3s      5.69169       0   0  -1           -0.00000 
      1       Na1_3s     Na1_2p_y      5.69169       0   0  -1           -0.00000 
      1     Na1_2p_y     Na1_2p_y      5.69169       0   0  -1           -0.00000 
      1     Na1_2p_z     Na1_2p_y      5.69169       0   0  -1           -0.00000 
      1     Na1_2p_x     Na1_2p_y      5.69169       0   0  -1           -0.00000 
      1       Na1_3s     Na1_2p_z      5.69169       0   0  -1           -0.00035 
      1     Na1_2p_y     Na1_2p_z      5.69169       0   0  -1           -0.00000 
      1     Na1_2p_z     Na1_2p_z      5.69169       0   0  -1            0.00000 
      1     Na1_2p_x     Na1_2p_z      5.69169       0   0  -1           -0.00000 
      1       Na1_3s     Na1_2p_x      5.69169       0   0  -1           -0.00000 
      1     Na1_2p_y     Na1_2p_x      5.69169       0   0  -1           -0.00000 
      1     Na1_2p_z     Na1_2p_x      5.69169       0   0  -1           -0.00000 
      1     Na1_2p_x     Na1_2p_x      5.69169       0   0  -1           -0.00000 
      2          Na1          Na1      5.69169       0  -1   0           -0.00041 
      2       Na1_3s       Na1_3s      5.69169       0  -1   0            0.00052 
      2     Na1_2p_y       Na1_3s      5.69169       0  -1   0           -0.00019 
      2     Na1_2p_z       Na1_3s      5.69169       0  -1   0           -0.00000 
      2     Na1_2p_x       Na1_3s      5.69169       0  -1   0           -0.00000 
      2       Na1_3s     Na1_2p_y      5.69169       0  -1   0           -0.00074 
      2     Na1_2p_y     Na1_2p_y      5.69169       0  -1   0            0.00000 
      2     Na1_2p_z     Na1_2p_y      5.69169       0  -1   0           -0.00000 
      2     Na1_2p_x     Na1_2p_y      5.69169       0  -1   0           -0.00000 
      2       Na1_3s     Na1_2p_z      5.69169       0  -1   0           -0.00000 
      2     Na1_2p_y     Na1_2p_z      5.69169       0  -1   0           -0.00000 
      2     Na1_2p_z     Na1_2p_z      5.69169       0  -1   0           -0.00000 
      2     Na1_2p_x     Na1_2p_z      5.69169       0  -1   0           -0.00000 
      2       Na1_3s     Na1_2p_x      5.69169       0  -1   0           -0.00000 
      2     Na1_2p_y     Na1_2p_x      5.69169       0  -1   0           -0.00000 
      2     Na1_2p_z     Na1_2p_x      5.69169       0  -1   0           -0.00000 
      2     Na1_2p_x     Na1_2p_x      5.69169       0  -1   0           -0.00000 
      3          Na1          Na1      5.69169      -1   0   0           -0.00033 
      3       Na1_3s       Na1_3s      5.69169      -1   0   0            0.00037 
      3     Na1_2p_y       Na1_3s      5.69169      -1   0   0           -0.00000 
      3     Na1_2p_z       Na1_3s      5.69169      -1   0   0           -0.00000 
      3     Na1_2p_x       Na1_3s      5.69169      -1   0   0           -0.00035 
      3       Na1_3s     Na1_2p_y      5.69169      -1   0   0           -0.00000 
      3     Na1_2p_y     Na1_2p_y      5.69169      -1   0   0           -0.00000 
      3     Na1_2p_z     Na1_2p_y      5.69169      -1   0   0           -0.00000 
      3     Na1_2p_x     Na1_2p_y      5.69169      -1   0   0           -0.00000 
      3       Na1_3s     Na1_2p_z      5.69169      -1   0   0           -0.00000 
      3     Na1_2p_y     Na1_2p_z      5.69169      -1   0   0           -0.00000 
      3     Na1_2p_z     Na1_2p_z      5.69169      -1   0   0           -0.00000 
      3     Na1_2p_x     Na1_2p_z      5.69169      -1   0   0           -0.00000 
      3       Na1_3s     Na1_2p_x      5.69169      -1   0   0           -0.00035 
      3     Na1_2p_y     Na1_2p_x      5.69169      -1   0   0           -0.00000 
      3     Na1_2p_z     Na1_2p_x      5.69169      -1   0   0            0.00000 
      3     Na1_2p_x     Na1_2p_x      5.69169      -1   0   0            0.00000 
      4          Na1          Na1      5.69169       1   0   0           -0.00033 
      4       Na1_3s       Na1_3s      5.69169       1   0   0            0.00037 
      4     Na1_2p_y       Na1_3s      5.69169       1   0   0           -0.00000 
      4     Na1_2p_z       Na1_3s      5.69169       1   0   0           -0.00000 
      4     Na1_2p_x       Na1_3s      5.69169       1   0   0           -0.00035 
      4       Na1_3s     Na1_2p_y      5.69169       1   0   0           -0.00000 
      4     Na1_2p_y     Na1_2p_y      5.69169       1   0   0           -0.00000 
      4     Na1_2p_z     Na1_2p_y      5.69169       1   0   0           -0.00000 
      4     Na1_2p_x     Na1_2p_y      5.69169       1   0   0           -0.00000 
      4       Na1_3s     Na1_2p_z      5.69169       1   0   0           -0.00000 
      4     Na1_2p_y     Na1_2p_z      5.69169       1   0   0           -0.00000 
      4     Na1_2p_z     Na1_2p_z      5.69169       1   0   0           -0.00000 
      4     Na1_2p_x     Na1_2p_z      5.69169       1   0   0            0.00000 
      4       Na1_3s     Na1_2p_x      5.69169       1   0   0           -0.00035 
      4     Na1_2p_y     Na1_2p_x      5.69169       1   0   0           -0.00000 
      4     Na1_2p_z     Na1_2p_x      5.69169       1   0   0           -0.00000 
      4     Na1_2p_x     Na1_2p_x      5.69169       1   0   0            0.00000 
      5          Na1          Na1      5.69169       0   1   0           -0.00041 
      5       Na1_3s       Na1_3s      5.69169       0   1   0            0.00052 
      5     Na1_2p_y       Na1_3s      5.69169       0   1   0           -0.00074 
      5     Na1_2p_z       Na1_3s      5.69169       0   1   0           -0.00000 
      5     Na1_2p_x       Na1_3s      5.69169       0   1   0           -0.00000 
      5       Na1_3s     Na1_2p_y      5.69169       0   1   0           -0.00019 
      5     Na1_2p_y     Na1_2p_y      5.69169       0   1   0            0.00000 
      5     Na1_2p_z     Na1_2p_y      5.69169       0   1   0           -0.00000 
      5     Na1_2p_x     Na1_2p_y      5.69169       0   1   0           -0.00000 
      5       Na1_3s     Na1_2p_z      5.69169       0   1   0           -0.00000 
      5     Na1_2p_y     Na1_2p_z      5.69169       0   1   0           -0.00000 
      5     Na1_2p_z     Na1_2p_z      5.69169       0   1   0           -0.00000 
      5     Na1_2p_x     Na1_2p_z      5.69169       0   1   0           -0.00000 
      5       Na1_3s     Na1_2p_x      5.69169       0   1   0           -0.00000 
      5     Na1_2p_y     Na1_2p_x      5.69169       0   1   0           -0.00000 
      5     Na1_2p_z     Na1_2p_x      5.69169       0   1   0           -0.00000 
      5     Na1_2p_x     Na1_2p_x      5.69169       0   1   0           -0.00000 
      6          Na1          Na1      5.69169       0   0   1           -0.00033 
      6       Na1_3s       Na1_3s      5.69169       0   0   1            0.00037 
      6     Na1_2p_y       Na1_3s      5.69169       0   0   1           -0.00000 
      6     Na1_2p_z       Na1_3s      5.69169       0   0   1           -0.00035 
      6     Na1_2p_x       Na1_3s      5.69169       0   0   1           -0.00000 
      6       Na1_3s     Na1_2p_y      5.69169       0   0   1           -0.00000 
      6     Na1_2p_y     Na1_2p_y      5.69169       0   0   1           -0.00000 
      6     Na1_2p_z     Na1_2p_y      5.69169       0   0   1           -0.00000 
      6     Na1_2p_x     Na1_2p_y      5.69169       0   0   1           -0.00000 
      6       Na1_3s     Na1_2p_z      5.69169       0   0   1           -0.00035 
      6     Na1_2p_y     Na1_2p_z      5.69169       0   0   1           -0.00000 
      6     Na1_2p_z     Na1_2p_z      5.69169       0   0   1            0.00000 
      6     Na1_2p_x     Na1_2p_z      5.69169       0   0   1           -0.00000 
      6       Na1_3s     Na1_2p_x      5.69169       0   0   1           -0.00000 
      6     Na1_2p_y     Na1_2p_x      5.69169       0   0   1           -0.00000 
      6     Na1_2p_z     Na1_2p_x      5.69169       0   0   1           -0.00000 
      6     Na1_2p_x     Na1_2p_x      5.69169       0   0   1           -0.00000 
      7          Na2          Na1      4.02464       0   0   0           -0.02922 
      7       Na2_3s       Na1_3s      4.02464       0   0   0           -0.02601 
      7     Na2_2p_y       Na1_3s      4.02464       0   0   0           -0.00083 
      7     Na2_2p_z       Na1_3s      4.02464       0   0   0           -0.00089 
      7     Na2_2p_x       Na1_3s      4.02464       0   0   0           -0.00000 
      7       Na2_3s     Na1_2p_y      4.02464       0   0   0           -0.00086 
      7     Na2_2p_y     Na1_2p_y      4.02464       0   0   0            0.00000 
      7     Na2_2p_z     Na1_2p_y      4.02464       0   0   0           -0.00000 
      7     Na2_2p_x     Na1_2p_y      4.02464       0   0   0           -0.00000 
      7       Na2_3s     Na1_2p_z      4.02464       0   0   0           -0.00063 
      7     Na2_2p_y     Na1_2p_z      4.02464       0   0   0           -0.00000 
      7     Na2_2p_z     Na1_2p_z      4.02464       0   0   0            0.00000 
      7     Na2_2p_x     Na1_2p_z      4.02464       0   0   0            0.00000 
      7       Na2_3s     Na1_2p_x      4.02464       0   0   0           -0.00000 
      7     Na2_2p_y     Na1_2p_x      4.02464       0   0   0            0.00000 
      7     Na2_2p_z     Na1_2p_x      4.02464       0   0   0           -0.00000 
      7     Na2_2p_x     Na1_2p_x      4.02464       0   0   0           -0.00000 
      8          Na2          Na1      4.02464       0   1   0           -0.02898 
      8       Na2_3s       Na1_3s      4.02464       0   1   0           -0.02516 
      8     Na2_2p_y       Na1_3s      4.02464       0   1   0           -0.00095 
      8     Na2_2p_z       Na1_3s      4.02464       0   1   0           -0.00092 
      8     Na2_2p_x       Na1_3s      4.02464       0   1   0           -0.00000 
      8       Na2_3s     Na1_2p_y      4.02464       0   1   0           -0.00090 
      8     Na2_2p_y     Na1_2p_y      4.02464       0   1   0           -0.00000 
      8     Na2_2p_z     Na1_2p_y      4.02464       0   1   0           -0.00000 
      8     Na2_2p_x     Na1_2p_y      4.02464       0   1   0           -0.00000 
      8       Na2_3s     Na1_2p_z      4.02464       0   1   0           -0.00105 
      8     Na2_2p_y     Na1_2p_z      4.02464       0   1   0           -0.00000 
      8     Na2_2p_z     Na1_2p_z      4.02464       0   1   0            0.00000 
      8     Na2_2p_x     Na1_2p_z      4.02464       0   1   0           -0.00000 
      8       Na2_3s     Na1_2p_x      4.02464       0   1   0           -0.00000 
      8     Na2_2p_y     Na1_2p_x      4.02464       0   1   0            0.00000 
      8     Na2_2p_z     Na1_2p_x      4.02464       0   1   0           -0.00000 
      8     Na2_2p_x     Na1_2p_x      4.02464       0   1   0           -0.00000 
      9          Na2          Na1      4.02464       0   0   1           -0.02922 
      9       Na2_3s       Na1_3s      4.02464       0   0   1           -0.02601 
      9     Na2_2p_y       Na1_3s      4.02464       0   0   1           -0.00083 
      9     Na2_2p_z       Na1_3s      4.02464       0   0   1           -0.00089 
      9     Na2_2p_x       Na1_3s      4.02464       0   0   1           -0.00000 
      9       Na2_3s     Na1_2p_y      4.02464       0   0   1           -0.00086 
      9     Na2_2p_y     Na1_2p_y      4.02464       0   0   1            0.00000 
      9     Na2_2p_z     Na1_2p_y      4.02464       0   0   1           -0.00000 
      9     Na2_2p_x     Na1_2p_y      4.02464       0   0   1           -0.00000 
      9       Na2_3s     Na1_2p_z      4.02464       0   0   1           -0.00063 
      9     Na2_2p_y     Na1_2p_z      4.02464       0   0   1           -0.00000 
      9     Na2_2p_z     Na1_2p_z      4.02464       0   0   1            0.00000 
      9     Na2_2p_x     Na1_2p_z      4.02464       0   0   1           -0.00000 
      9       Na2_3s     Na1_2p_x      4.02464       0   0   1            0.00000 
      9     Na2_2p_y     Na1_2p_x      4.02464       0   0   1            0.00000 
      9     Na2_2p_z     Na1_2p_x      4.02464       0   0   1           -0.00000 
      9     Na2_2p_x     Na1_2p_x      4.02464       0   0   1           -0.00000 
     10          Na2          Na1      4.02464       0   1   1           -0.02898 
     10       Na2_3s       Na1_3s      4.02464       0   1   1           -0.02516 
     10     Na2_2p_y       Na1_3s      4.02464       0   1   1           -0.00095 
     10     Na2_2p_z       Na1_3s      4.02464       0   1   1           -0.00092 
     10     Na2_2p_x       Na1_3s      4.02464       0   1   1           -0.00000 
     10       Na2_3s     Na1_2p_y      4.02464       0   1   1           -0.00090 
     10     Na2_2p_y     Na1_2p_y      4.02464       0   1   1           -0.00000 
     10     Na2_2p_z     Na1_2p_y      4.02464       0   1   1           -0.00000 
     10     Na2_2p_x     Na1_2p_y      4.02464       0   1   1            0.00000 
     10       Na2_3s     Na1_2p_z      4.02464       0   1   1           -0.00105 
     10     Na2_2p_y     Na1_2p_z      4.02464       0   1   1           -0.00000 
     10     Na2_2p_z     Na1_2p_z      4.02464       0   1   1            0.00000 
     10     Na2_2p_x     Na1_2p_z      4.02464       0   1   1           -0.00000 
     10       Na2_3s     Na1_2p_x      4.02464       0   1   1           -0.00000 
     10     Na2_2p_y     Na1_2p_x      4.02464       0   1   1           -0.00000 
     10     Na2_2p_z     Na1_2p_x      4.02464       0   1   1           -0.00000 
     10     Na2_2p_x     Na1_2p_x      4.02464       0   1   1           -0.00000 
     11          Na3          Na1      4.02464       0   0   0           -0.02858 
     11       Na3_3s       Na1_3s      4.02464       0   0   0           -0.02508 
     11     Na3_2p_y       Na1_3s      4.02464       0   0   0           -0.00000 
     11     Na3_2p_z       Na1_3s      4.02464       0   0   0           -0.00085 
     11     Na3_2p_x       Na1_3s      4.02464       0   0   0           -0.00085 
     11       Na3_3s     Na1_2p_y      4.02464       0   0   0            0.00000 
     11     Na3_2p_y     Na1_2p_y      4.02464       0   0   0           -0.00000 
     11     Na3_2p_z     Na1_2p_y      4.02464       0   0   0           -0.00000 
     11     Na3_2p_x     Na1_2p_y      4.02464       0   0   0           -0.00000 
     11       Na3_3s     Na1_2p_z      4.02464       0   0   0           -0.00089 
     11     Na3_2p_y     Na1_2p_z      4.02464       0   0   0           -0.00000 
     11     Na3_2p_z     Na1_2p_z      4.02464       0   0   0            0.00000 
     11     Na3_2p_x     Na1_2p_z      4.02464       0   0   0           -0.00000 
     11       Na3_3s     Na1_2p_x      4.02464       0   0   0           -0.00089 
     11     Na3_2p_y     Na1_2p_x      4.02464       0   0   0           -0.00000 
     11     Na3_2p_z     Na1_2p_x      4.02464       0   0   0           -0.00000 
     11     Na3_2p_x     Na1_2p_x      4.02464       0   0   0            0.00000 
     12          Na3          Na1      4.02464       1   0   0           -0.02858 
     12       Na3_3s       Na1_3s      4.02464       1   0   0           -0.02508 
     12     Na3_2p_y       Na1_3s      4.02464       1   0   0           -0.00000 
     12     Na3_2p_z       Na1_3s      4.02464       1   0   0           -0.00085 
     12     Na3_2p_x       Na1_3s      4.02464       1   0   0           -0.00085 
     12       Na3_3s     Na1_2p_y      4.02464       1   0   0            0.00000 
     12     Na3_2p_y     Na1_2p_y      4.02464       1   0   0           -0.00000 
     12     Na3_2p_z     Na1_2p_y      4.02464       1   0   0           -0.00000 
     12     Na3_2p_x     Na1_2p_y      4.02464       1   0   0           -0.00000 
     12       Na3_3s     Na1_2p_z      4.02464       1   0   0           -0.00089 
     12     Na3_2p_y     Na1_2p_z      4.02464       1   0   0           -0.00000 
     12     Na3_2p_z     Na1_2p_z      4.02464       1   0   0            0.00000 
     12     Na3_2p_x     Na1_2p_z      4.02464       1   0   0           -0.00000 
     12       Na3_3s     Na1_2p_x      4.02464       1   0   0           -0.00089 
     12     Na3_2p_y     Na1_2p_x      4.02464       1   0   0           -0.00000 
     12     Na3_2p_z     Na1_2p_x      4.02464       1   0   0           -0.00000 
     12     Na3_2p_x     Na1_2p_x      4.02464       1   0   0            0.00000 
     13          Na3          Na1      4.02464       0   0   1           -0.02858 
     13       Na3_3s       Na1_3s      4.02464       0   0   1           -0.02508 
     13     Na3_2p_y       Na1_3s      4.02464       0   0   1           -0.00000 
     13     Na3_2p_z       Na1_3s      4.02464       0   0   1           -0.00085 
     13     Na3_2p_x       Na1_3s      4.02464       0   0   1           -0.00085 
     13       Na3_3s     Na1_2p_y      4.02464       0   0   1            0.00000 
     13     Na3_2p_y     Na1_2p_y      4.02464       0   0   1           -0.00000 
     13     Na3_2p_z     Na1_2p_y      4.02464       0   0   1           -0.00000 
     13     Na3_2p_x     Na1_2p_y      4.02464       0   0   1           -0.00000 
     13       Na3_3s     Na1_2p_z      4.02464       0   0   1           -0.00089 
     13     Na3_2p_y     Na1_2p_z      4.02464       0   0   1           -0.00000 
     13     Na3_2p_z     Na1_2p_z      4.02464       0   0   1            0.00000 
     13     Na3_2p_x     Na1_2p_z      4.02464       0   0   1           -0.00000 
     13       Na3_3s     Na1_2p_x      4.02464       0   0   1           -0.00089 
     13     Na3_2p_y     Na1_2p_x      4.02464       0   0   1           -0.00000 
     13     Na3_2p_z     Na1_2p_x      4.02464       0   0   1           -0.00000 
     13     Na3_2p_x     Na1_2p_x      4.02464       0   0   1            0.00000 
     14          Na3          Na1      4.02464       1   0   1           -0.02858 
     14       Na3_3s       Na1_3s      4.02464       1   0   1           -0.02508 
     14     Na3_2p_y       Na1_3s      4.02464       1   0   1           -0.00000 
     14     Na3_2p_z       Na1_3s      4.02464       1   0   1           -0.00085 
     14     Na3_2p_x       Na1_3s      4.02464       1   0   1           -0.00085 
     14       Na3_3s     Na1_2p_y      4.02464       1   0   1            0.00000 
     14     Na3_2p_y     Na1_2p_y      4.02464       1   0   1           -0.00000 
     14     Na3_2p_z     Na1_2p_y      4.02464       1   0   1           -0.00000 
     14     Na3_2p_x     Na1_2p_y      4.02464       1   0   1           -0.00000 
     14       Na3_3s     Na1_2p_z      4.02464       1   0   1           -0.00089 
     14     Na3_2p_y     Na1_2p_z      4.02464       1   0   1           -0.00000 
     14     Na3_2p_z     Na1_2p_z      4.02464       1   0   1            0.00000 
     14     Na3_2p_x     Na1_2p_z      4.02464       1   0   1           -0.00000 
     14       Na3_3s     Na1_2p_x      4.02464       1   0   1           -0.00089 
     14     Na3_2p_y     Na1_2p_x      4.02464       1   0   1           -0.00000 
     14     Na3_2p_z     Na1_2p_x      4.02464       1   0   1           -0.00000 
     14     Na3_2p_x     Na1_2p_x      4.02464       1   0   1            0.00000 
     15          Na4          Na1      4.02464       0   0   0           -0.02922 
     15       Na4_3s       Na1_3s      4.02464       0   0   0           -0.02601 
     15     Na4_2p_y       Na1_3s      4.02464       0   0   0           -0.00083 
     15     Na4_2p_z       Na1_3s      4.02464       0   0   0           -0.00000 
     15     Na4_2p_x       Na1_3s      4.02464       0   0   0           -0.00089 
     15       Na4_3s     Na1_2p_y      4.02464       0   0   0           -0.00086 
     15     Na4_2p_y     Na1_2p_y      4.02464       0   0   0            0.00000 
     15     Na4_2p_z     Na1_2p_y      4.02464       0   0   0           -0.00000 
     15     Na4_2p_x     Na1_2p_y      4.02464       0   0   0           -0.00000 
     15       Na4_3s     Na1_2p_z      4.02464       0   0   0            0.00000 
     15     Na4_2p_y     Na1_2p_z      4.02464       0   0   0           -0.00000 
     15     Na4_2p_z     Na1_2p_z      4.02464       0   0   0           -0.00000 
     15     Na4_2p_x     Na1_2p_z      4.02464       0   0   0           -0.00000 
     15       Na4_3s     Na1_2p_x      4.02464       0   0   0           -0.00063 
     15     Na4_2p_y     Na1_2p_x      4.02464       0   0   0           -0.00000 
     15     Na4_2p_z     Na1_2p_x      4.02464       0   0   0           -0.00000 
     15     Na4_2p_x     Na1_2p_x      4.02464       0   0   0            0.00000 
     16          Na4          Na1      4.02464       1   0   0           -0.02922 
     16       Na4_3s       Na1_3s      4.02464       1   0   0           -0.02601 
     16     Na4_2p_y       Na1_3s      4.02464       1   0   0           -0.00083 
     16     Na4_2p_z       Na1_3s      4.02464       1   0   0           -0.00000 
     16     Na4_2p_x       Na1_3s      4.02464       1   0   0           -0.00089 
     16       Na4_3s     Na1_2p_y      4.02464       1   0   0           -0.00086 
     16     Na4_2p_y     Na1_2p_y      4.02464       1   0   0            0.00000 
     16     Na4_2p_z     Na1_2p_y      4.02464       1   0   0           -0.00000 
     16     Na4_2p_x     Na1_2p_y      4.02464       1   0   0           -0.00000 
     16       Na4_3s     Na1_2p_z      4.02464       1   0   0           -0.00000 
     16     Na4_2p_y     Na1_2p_z      4.02464       1   0   0           -0.00000 
     16     Na4_2p_z     Na1_2p_z      4.02464       1   0   0           -0.00000 
     16     Na4_2p_x     Na1_2p_z      4.02464       1   0   0           -0.00000 
     16       Na4_3s     Na1_2p_x      4.02464       1   0   0           -0.00063 
     16     Na4_2p_y     Na1_2p_x      4.02464       1   0   0           -0.00000 
     16     Na4_2p_z     Na1_2p_x      4.02464       1   0   0           -0.00000 
     16     Na4_2p_x     Na1_2p_x      4.02464       1   0   0            0.00000 
     17          Na4          Na1      4.02464       0   1   0           -0.02898 
     17       Na4_3s       Na1_3s      4.02464       0   1   0           -0.02516 
     17     Na4_2p_y       Na1_3s      4.02464       0   1   0           -0.00095 
     17     Na4_2p_z       Na1_3s      4.02464       0   1   0           -0.00000 
     17     Na4_2p_x       Na1_3s      4.02464       0   1   0           -0.00092 
     17       Na4_3s     Na1_2p_y      4.02464       0   1   0           -0.00090 
     17     Na4_2p_y     Na1_2p_y      4.02464       0   1   0           -0.00000 
     17     Na4_2p_z     Na1_2p_y      4.02464       0   1   0           -0.00000 
     17     Na4_2p_x     Na1_2p_y      4.02464       0   1   0           -0.00000 
     17       Na4_3s     Na1_2p_z      4.02464       0   1   0           -0.00000 
     17     Na4_2p_y     Na1_2p_z      4.02464       0   1   0           -0.00000 
     17     Na4_2p_z     Na1_2p_z      4.02464       0   1   0           -0.00000 
     17     Na4_2p_x     Na1_2p_z      4.02464       0   1   0           -0.00000 
     17       Na4_3s     Na1_2p_x      4.02464       0   1   0           -0.00105 
     17     Na4_2p_y     Na1_2p_x      4.02464       0   1   0           -0.00000 
     17     Na4_2p_z     Na1_2p_x      4.02464       0   1   0           -0.00000 
     17     Na4_2p_x     Na1_2p_x      4.02464       0   1   0            0.00000 
     18          Na4          Na1      4.02464       1   1   0           -0.02898 
     18       Na4_3s       Na1_3s      4.02464       1   1   0           -0.02516 
     18     Na4_2p_y       Na1_3s      4.02464       1   1   0           -0.00095 
     18     Na4_2p_z       Na1_3s      4.02464       1   1   0           -0.00000 
     18     Na4_2p_x       Na1_3s      4.02464       1   1   0           -0.00092 
     18       Na4_3s     Na1_2p_y      4.02464       1   1   0           -0.00090 
     18     Na4_2p_y     Na1_2p_y      4.02464       1   1   0           -0.00000 
     18     Na4_2p_z     Na1_2p_y      4.02464       1   1   0           -0.00000 
     18     Na4_2p_x     Na1_2p_y      4.02464       1   1   0           -0.00000 
     18       Na4_3s     Na1_2p_z      4.02464       1   1   0           -0.00000 
     18     Na4_2p_y     Na1_2p_z      4.02464       1   1   0           -0.00000 
     18     Na4_2p_z     Na1_2p_z      4.02464       1   1   0           -0.00000 
     18     Na4_2p_x     Na1_2p_z      4.02464       1   1   0           -0.00000 
     18       Na4_3s     Na1_2p_x      4.02464       1   1   0           -0.00105 
     18     Na4_2p_y     Na1_2p_x      4.02464       1   1   0           -0.00000 
     18     Na4_2p_z     Na1_2p_x      4.02464       1   1   0           -0.00000 
     18     Na4_2p_x     Na1_2p_x      4.02464       1   1   0            0.00000 
     19          Cl5          Na1      2.84585       0   0   0           -0.56374 
     19       Cl5_3s       Na1_3s      2.84585       0   0   0           -0.32273 
     19     Cl5_3p_y       Na1_3s      2.84585       0   0   0           -0.00040 
     19     Cl5_3p_z       Na1_3s      2.84585       0   0   0           -0.00000 
     19     Cl5_3p_x       Na1_3s      2.84585       0   0   0           -0.24079 
     19       Cl5_3s     Na1_2p_y      2.84585       0   0   0           -0.00001 
     19     Cl5_3p_y     Na1_2p_y      2.84585       0   0   0            0.00012 
     19     Cl5_3p_z     Na1_2p_y      2.84585       0   0   0            0.00000 
     19     Cl5_3p_x     Na1_2p_y      2.84585       0   0   0           -0.00000 
     19       Cl5_3s     Na1_2p_z      2.84585       0   0   0           -0.00000 
     19     Cl5_3p_y     Na1_2p_z      2.84585       0   0   0           -0.00000 
     19     Cl5_3p_z     Na1_2p_z      2.84585       0   0   0            0.00012 
     19     Cl5_3p_x     Na1_2p_z      2.84585       0   0   0           -0.00000 
     19       Cl5_3s     Na1_2p_x      2.84585       0   0   0            0.00031 
     19     Cl5_3p_y     Na1_2p_x      2.84585       0   0   0           -0.00000 
     19     Cl5_3p_z     Na1_2p_x      2.84585       0   0   0           -0.00000 
     19     Cl5_3p_x     Na1_2p_x      2.84585       0   0   0           -0.00035 
     20          Cl5          Na1      2.84585       1   0   0           -0.56374 
     20       Cl5_3s       Na1_3s      2.84585       1   0   0           -0.32273 
     20     Cl5_3p_y       Na1_3s      2.84585       1   0   0           -0.00040 
     20     Cl5_3p_z       Na1_3s      2.84585       1   0   0           -0.00000 
     20     Cl5_3p_x       Na1_3s      2.84585       1   0   0           -0.24079 
     20       Cl5_3s     Na1_2p_y      2.84585       1   0   0           -0.00001 
     20     Cl5_3p_y     Na1_2p_y      2.84585       1   0   0            0.00012 
     20     Cl5_3p_z     Na1_2p_y      2.84585       1   0   0           -0.00000 
     20     Cl5_3p_x     Na1_2p_y      2.84585       1   0   0           -0.00000 
     20       Cl5_3s     Na1_2p_z      2.84585       1   0   0           -0.00000 
     20     Cl5_3p_y     Na1_2p_z      2.84585       1   0   0           -0.00000 
     20     Cl5_3p_z     Na1_2p_z      2.84585       1   0   0            0.00012 
     20     Cl5_3p_x     Na1_2p_z      2.84585       1   0   0           -0.00000 
     20       Cl5_3s     Na1_2p_x      2.84585       1   0   0            0.00031 
     20     Cl5_3p_y     Na1_2p_x      2.84585       1   0   0           -0.00000 
     20     Cl5_3p_z     Na1_2p_x      2.84585       1   0   0           -0.00000 
     20     Cl5_3p_x     Na1_2p_x      2.84585       1   0   0           -0.00035 
     21          Cl6          Na1      4.92915       0   0   0           -0.00306 
     21       Cl6_3s       Na1_3s      4.92915       0   0   0           -0.00132 
     21     Cl6_3p_y       Na1_3s      4.92915       0   0   0           -0.00063 
     21     Cl6_3p_z       Na1_3s      4.92915       0   0   0           -0.00049 
     21     Cl6_3p_x       Na1_3s      4.92915       0   0   0           -0.00049 
     21       Cl6_3s     Na1_2p_y      4.92915       0   0   0           -0.00002 
     21     Cl6_3p_y     Na1_2p_y      4.92915       0   0   0            0.00000 
     21     Cl6_3p_z     Na1_2p_y      4.92915       0   0   0           -0.00001 
     21     Cl6_3p_x     Na1_2p_y      4.92915       0   0   0           -0.00001 
     21       Cl6_3s     Na1_2p_z      4.92915       0   0   0           -0.00002 
     21     Cl6_3p_y     Na1_2p_z      4.92915       0   0   0           -0.00001 
     21     Cl6_3p_z     Na1_2p_z      4.92915       0   0   0            0.00000 
     21     Cl6_3p_x     Na1_2p_z      4.92915       0   0   0           -0.00001 
     21       Cl6_3s     Na1_2p_x      4.92915       0   0   0           -0.00002 
     21     Cl6_3p_y     Na1_2p_x      4.92915       0   0   0           -0.00001 
     21     Cl6_3p_z     Na1_2p_x      4.92915       0   0   0           -0.00001 
     21     Cl6_3p_x     Na1_2p_x      4.92915       0   0   0            0.00000 
     22          Cl6          Na1      4.92915       1   0   0           -0.00306 
     22       Cl6_3s       Na1_3s      4.92915       1   0   0           -0.00132 
     22     Cl6_3p_y       Na1_3s      4.92915       1   0   0           -0.00063 