  COHP#       atomMU       atomNU     distance     translation      ICOHP (at) eF   for spin  1
      1          Na1          Na1      5.69169       1  -1  -1           -0.00034 
      1       Na1_3s       Na1_3s      5.69169       1  -1  -1            0.00044 
      1     Na1_2p_y       Na1_3s      5.69169       1  -1  -1           -0.00000 
      1     Na1_2p_z       Na1_3s      5.69169       1  -1  -1           -0.00000 
      1     Na1_2p_x       Na1_3s      5.69169       1  -1  -1           -0.00039 
      1       Na1_3s     Na1_2p_y      5.69169       1  -1  -1           -0.00000 
      1     Na1_2p_y     Na1_2p_y      5.69169       1  -1  -1           -0.00000 
      1     Na1_2p_z     Na1_2p_y      5.69169       1  -1  -1           -0.00000 
      1     Na1_2p_x     Na1_2p_y      5.69169       1  -1  -1           -0.00000 
      1       Na1_3s     Na1_2p_z      5.69169       1  -1  -1           -0.00000 
      1     Na1_2p_y     Na1_2p_z      5.69169       1  -1  -1           -0.00000 
      1     Na1_2p_z     Na1_2p_z      5.69169       1  -1  -1           -0.00000 
      1     Na1_2p_x     Na1_2p_z      5.69169       1  -1  -1           -0.00000 
      1       Na1_3s     Na1_2p_x      5.69169       1  -1  -1           -0.00039 
      1     Na1_2p_y     Na1_2p_x      5.69169       1  -1  -1           -0.00000 
      1     Na1_2p_z     Na1_2p_x      5.69169       1  -1  -1           -0.00000 
      1     Na1_2p_x     Na1_2p_x      5.69169       1  -1  -1            0.00000 
      2          Na1          Na1      4.02464       0   0  -1           -0.02923 
      2       Na1_3s       Na1_3s      4.02464       0   0  -1           -0.02574 
      2     Na1_2p_y       Na1_3s      4.02464       0   0  -1           -0.00087 
      2     Na1_2p_z       Na1_3s      4.02464       0   0  -1           -0.00000 
      2     Na1_2p_x       Na1_3s      4.02464       0   0  -1           -0.00087 
      2       Na1_3s     Na1_2p_y      4.02464       0   0  -1           -0.00087 
      2     Na1_2p_y     Na1_2p_y      4.02464       0   0  -1            0.00000 
      2     Na1_2p_z     Na1_2p_y      4.02464       0   0  -1           -0.00000 
      2     Na1_2p_x     Na1_2p_y      4.02464       0   0  -1           -0.00000 
      2       Na1_3s     Na1_2p_z      4.02464       0   0  -1           -0.00000 
      2     Na1_2p_y     Na1_2p_z      4.02464       0   0  -1           -0.00000 
      2     Na1_2p_z     Na1_2p_z      4.02464       0   0  -1           -0.00000 
      2     Na1_2p_x     Na1_2p_z      4.02464       0   0  -1           -0.00000 
      2       Na1_3s     Na1_2p_x      4.02464       0   0  -1           -0.00087 
      2     Na1_2p_y     Na1_2p_x      4.02464       0   0  -1           -0.00000 
      2     Na1_2p_z     Na1_2p_x      4.02464       0   0  -1           -0.00000 
      2     Na1_2p_x     Na1_2p_x      4.02464       0   0  -1            0.00000 
      3          Na1          Na1      4.02464       1   0  -1           -0.02923 
      3       Na1_3s       Na1_3s      4.02464       1   0  -1           -0.02574 
      3     Na1_2p_y       Na1_3s      4.02464       1   0  -1           -0.00000 
      3     Na1_2p_z       Na1_3s      4.02464       1   0  -1           -0.00087 
      3     Na1_2p_x       Na1_3s      4.02464       1   0  -1           -0.00087 
      3       Na1_3s     Na1_2p_y      4.02464       1   0  -1           -0.00000 
      3     Na1_2p_y     Na1_2p_y      4.02464       1   0  -1           -0.00000 
      3     Na1_2p_z     Na1_2p_y      4.02464       1   0  -1           -0.00000 
      3     Na1_2p_x     Na1_2p_y      4.02464       1   0  -1           -0.00000 
      3       Na1_3s     Na1_2p_z      4.02464       1   0  -1           -0.00087 
      3     Na1_2p_y     Na1_2p_z      4.02464       1   0  -1           -0.00000 
      3     Na1_2p_z     Na1_2p_z      4.02464       1   0  -1            0.00000 
      3     Na1_2p_x     Na1_2p_z      4.02464       1   0  -1           -0.00000 
      3       Na1_3s     Na1_2p_x      4.02464       1   0  -1           -0.00087 
      3     Na1_2p_y     Na1_2p_x      4.02464       1   0  -1           -0.00000 
      3     Na1_2p_z     Na1_2p_x      4.02464       1   0  -1           -0.00000 
      3     Na1_2p_x     Na1_2p_x      4.02464       1   0  -1            0.00000 
      4          Na1          Na1      5.69169      -1   1  -1           -0.00034 
      4       Na1_3s       Na1_3s      5.69169      -1   1  -1            0.00044 
      4     Na1_2p_y       Na1_3s      5.69169      -1   1  -1           -0.00039 
      4     Na1_2p_z       Na1_3s      5.69169      -1   1  -1           -0.00000 
      4     Na1_2p_x       Na1_3s      5.69169      -1   1  -1           -0.00000 
      4       Na1_3s     Na1_2p_y      5.69169      -1   1  -1           -0.00039 
      4     Na1_2p_y     Na1_2p_y      5.69169      -1   1  -1            0.00000 
      4     Na1_2p_z     Na1_2p_y      5.69169      -1   1  -1           -0.00000 
      4     Na1_2p_x     Na1_2p_y      5.69169      -1   1  -1           -0.00000 
      4       Na1_3s     Na1_2p_z      5.69169      -1   1  -1           -0.00000 
      4     Na1_2p_y     Na1_2p_z      5.69169      -1   1  -1           -0.00000 
      4     Na1_2p_z     Na1_2p_z      5.69169      -1   1  -1           -0.00000 
      4     Na1_2p_x     Na1_2p_z      5.69169      -1   1  -1           -0.00000 
      4       Na1_3s     Na1_2p_x      5.69169      -1   1  -1           -0.00000 
      4     Na1_2p_y     Na1_2p_x      5.69169      -1   1  -1           -0.00000 
      4     Na1_2p_z     Na1_2p_x      5.69169      -1   1  -1           -0.00000 
      4     Na1_2p_x     Na1_2p_x      5.69169      -1   1  -1           -0.00000 
      5          Na1          Na1      4.02464       0   1  -1           -0.02923 
      5       Na1_3s       Na1_3s      4.02464       0   1  -1           -0.02574 
      5     Na1_2p_y       Na1_3s      4.02464       0   1  -1           -0.00087 
      5     Na1_2p_z       Na1_3s      4.02464       0   1  -1           -0.00087 
      5     Na1_2p_x       Na1_3s      4.02464       0   1  -1           -0.00000 
      5       Na1_3s     Na1_2p_y      4.02464       0   1  -1           -0.00087 
      5     Na1_2p_y     Na1_2p_y      4.02464       0   1  -1            0.00000 
      5     Na1_2p_z     Na1_2p_y      4.02464       0   1  -1           -0.00000 
      5     Na1_2p_x     Na1_2p_y      4.02464       0   1  -1           -0.00000 
      5       Na1_3s     Na1_2p_z      4.02464       0   1  -1           -0.00087 
      5     Na1_2p_y     Na1_2p_z      4.02464       0   1  -1           -0.00000 
      5     Na1_2p_z     Na1_2p_z      4.02464       0   1  -1            0.00000 
      5     Na1_2p_x     Na1_2p_z      4.02464       0   1  -1           -0.00000 
      5       Na1_3s     Na1_2p_x      4.02464       0   1  -1           -0.00000 
      5     Na1_2p_y     Na1_2p_x      4.02464       0   1  -1           -0.00000 
      5     Na1_2p_z     Na1_2p_x      4.02464       0   1  -1           -0.00000 
      5     Na1_2p_x     Na1_2p_x      4.02464       0   1  -1           -0.00000 
      6          Na1          Na1      5.69169       1   1  -1           -0.00034 
      6       Na1_3s       Na1_3s      5.69169       1   1  -1            0.00044 
      6     Na1_2p_y       Na1_3s      5.69169       1   1  -1           -0.00000 
      6     Na1_2p_z       Na1_3s      5.69169       1   1  -1           -0.00039 
      6     Na1_2p_x       Na1_3s      5.69169       1   1  -1           -0.00000 
      6       Na1_3s     Na1_2p_y      5.69169       1   1  -1           -0.00000 
      6     Na1_2p_y     Na1_2p_y      5.69169       1   1  -1           -0.00000 
      6     Na1_2p_z     Na1_2p_y      5.69169       1   1  -1           -0.00000 
      6     Na1_2p_x     Na1_2p_y      5.69169       1   1  -1           -0.00000 
      6       Na1_3s     Na1_2p_z      5.69169       1   1  -1           -0.00039 
      6     Na1_2p_y     Na1_2p_z      5.69169       1   1  -1           -0.00000 
      6     Na1_2p_z     Na1_2p_z      5.69169       1   1  -1            0.00000 
      6     Na1_2p_x     Na1_2p_z      5.69169       1   1  -1           -0.00000 
      6       Na1_3s     Na1_2p_x      5.69169       1   1  -1           -0.00000 
      6     Na1_2p_y     Na1_2p_x      5.69169       1   1  -1           -0.00000 
      6     Na1_2p_z     Na1_2p_x      5.69169       1   1  -1           -0.00000 
      6     Na1_2p_x     Na1_2p_x      5.69169       1   1  -1           -0.00000 
      7          Na1          Na1      4.02464       0  -1   0           -0.02923 
      7       Na1_3s       Na1_3s      4.02464       0  -1   0           -0.02574 
      7     Na1_2p_y       Na1_3s      4.02464       0  -1   0           -0.00000 
      7     Na1_2p_z       Na1_3s      4.02464       0  -1   0           -0.00087 
      7     Na1_2p_x       Na1_3s      4.02464       0  -1   0           -0.00087 
      7       Na1_3s     Na1_2p_y      4.02464       0  -1   0           -0.00000 
      7     Na1_2p_y     Na1_2p_y      4.02464       0  -1   0           -0.00000 
      7     Na1_2p_z     Na1_2p_y      4.02464       0  -1   0           -0.00000 
      7     Na1_2p_x     Na1_2p_y      4.02464       0  -1   0           -0.00000 
      7       Na1_3s     Na1_2p_z      4.02464       0  -1   0           -0.00087 
      7     Na1_2p_y     Na1_2p_z      4.02464       0  -1   0           -0.00000 
      7     Na1_2p_z     Na1_2p_z      4.02464       0  -1   0            0.00000 
      7     Na1_2p_x     Na1_2p_z      4.02464       0  -1   0           -0.00000 
      7       Na1_3s     Na1_2p_x      4.02464       0  -1   0           -0.00087 
      7     Na1_2p_y     Na1_2p_x      4.02464       0  -1   0           -0.00000 
      7     Na1_2p_z     Na1_2p_x      4.02464       0  -1   0           -0.00000 
      7     Na1_2p_x     Na1_2p_x      4.02464       0  -1   0            0.00000 
      8          Na1          Na1      4.02464       1  -1   0           -0.02923 
      8       Na1_3s       Na1_3s      4.02464       1  -1   0           -0.02574 
      8     Na1_2p_y       Na1_3s      4.02464       1  -1   0           -0.00087 
      8     Na1_2p_z       Na1_3s      4.02464       1  -1   0           -0.00000 
      8     Na1_2p_x       Na1_3s      4.02464       1  -1   0           -0.00087 
      8       Na1_3s     Na1_2p_y      4.02464       1  -1   0           -0.00087 
      8     Na1_2p_y     Na1_2p_y      4.02464       1  -1   0            0.00000 
      8     Na1_2p_z     Na1_2p_y      4.02464       1  -1   0           -0.00000 
      8     Na1_2p_x     Na1_2p_y      4.02464       1  -1   0           -0.00000 
      8       Na1_3s     Na1_2p_z      4.02464       1  -1   0           -0.00000 
      8     Na1_2p_y     Na1_2p_z      4.02464       1  -1   0           -0.00000 
      8     Na1_2p_z     Na1_2p_z      4.02464       1  -1   0           -0.00000 
      8     Na1_2p_x     Na1_2p_z      4.02464       1  -1   0           -0.00000 
      8       Na1_3s     Na1_2p_x      4.02464       1  -1   0           -0.00087 
      8     Na1_2p_y     Na1_2p_x      4.02464       1  -1   0           -0.00000 
      8     Na1_2p_z     Na1_2p_x      4.02464       1  -1   0           -0.00000 
      8     Na1_2p_x     Na1_2p_x      4.02464       1  -1   0            0.00000 
      9          Na1          Na1      4.02464      -1   0   0           -0.02923 
      9       Na1_3s       Na1_3s      4.02464      -1   0   0           -0.02574 
      9     Na1_2p_y       Na1_3s      4.02464      -1   0   0           -0.00087 
      9     Na1_2p_z       Na1_3s      4.02464      -1   0   0           -0.00087 
      9     Na1_2p_x       Na1_3s      4.02464      -1   0   0           -0.00000 
      9       Na1_3s     Na1_2p_y      4.02464      -1   0   0           -0.00087 
      9     Na1_2p_y     Na1_2p_y      4.02464      -1   0   0            0.00000 
      9     Na1_2p_z     Na1_2p_y      4.02464      -1   0   0           -0.00000 
      9     Na1_2p_x     Na1_2p_y      4.02464      -1   0   0           -0.00000 
      9       Na1_3s     Na1_2p_z      4.02464      -1   0   0           -0.00087 
      9     Na1_2p_y     Na1_2p_z      4.02464      -1   0   0           -0.00000 
      9     Na1_2p_z     Na1_2p_z      4.02464      -1   0   0            0.00000 
      9     Na1_2p_x     Na1_2p_z      4.02464      -1   0   0           -0.00000 
      9       Na1_3s     Na1_2p_x      4.02464      -1   0   0           -0.00000 
      9     Na1_2p_y     Na1_2p_x      4.02464      -1   0   0           -0.00000 
      9     Na1_2p_z     Na1_2p_x      4.02464      -1   0   0           -0.00000 
      9     Na1_2p_x     Na1_2p_x      4.02464      -1   0   0           -0.00000 
     10          Na1          Na1      4.02464       1   0   0           -0.02923 
     10       Na1_3s       Na1_3s      4.02464       1   0   0           -0.02574 
     10     Na1_2p_y       Na1_3s      4.02464       1   0   0           -0.00087 
     10     Na1_2p_z       Na1_3s      4.02464       1   0   0           -0.00087 
     10     Na1_2p_x       Na1_3s      4.02464       1   0   0           -0.00000 
     10       Na1_3s     Na1_2p_y      4.02464       1   0   0           -0.00087 
     10     Na1_2p_y     Na1_2p_y      4.02464       1   0   0            0.00000 
     10     Na1_2p_z     Na1_2p_y      4.02464       1   0   0           -0.00000 
     10     Na1_2p_x     Na1_2p_y      4.02464       1   0   0           -0.00000 
     10       Na1_3s     Na1_2p_z      4.02464       1   0   0           -0.00087 
     10     Na1_2p_y     Na1_2p_z      4.02464       1   0   0           -0.00000 
     10     Na1_2p_z     Na1_2p_z      4.02464       1   0   0            0.00000 
     10     Na1_2p_x     Na1_2p_z      4.02464       1   0   0           -0.00000 
     10       Na1_3s     Na1_2p_x      4.02464       1   0   0           -0.00000 
     10     Na1_2p_y     Na1_2p_x      4.02464       1   0   0           -0.00000 
     10     Na1_2p_z     Na1_2p_x      4.02464       1   0   0           -0.00000 
     10     Na1_2p_x     Na1_2p_x      4.02464       1   0   0           -0.00000 
     11          Na1          Na1      4.02464      -1   1   0           -0.02923 
     11       Na1_3s       Na1_3s      4.02464      -1   1   0           -0.02574 
     11     Na1_2p_y       Na1_3s      4.02464      -1   1   0           -0.00087 
     11     Na1_2p_z       Na1_3s      4.02464      -1   1   0           -0.00000 
     11     Na1_2p_x       Na1_3s      4.02464      -1   1   0           -0.00087 
     11       Na1_3s     Na1_2p_y      4.02464      -1   1   0           -0.00087 
     11     Na1_2p_y     Na1_2p_y      4.02464      -1   1   0            0.00000 
     11     Na1_2p_z     Na1_2p_y      4.02464      -1   1   0           -0.00000 
     11     Na1_2p_x     Na1_2p_y      4.02464      -1   1   0           -0.00000 
     11       Na1_3s     Na1_2p_z      4.02464      -1   1   0           -0.00000 
     11     Na1_2p_y     Na1_2p_z      4.02464      -1   1   0           -0.00000 
     11     Na1_2p_z     Na1_2p_z      4.02464      -1   1   0           -0.00000 
     11     Na1_2p_x     Na1_2p_z      4.02464      -1   1   0           -0.00000 
     11       Na1_3s     Na1_2p_x      4.02464      -1   1   0           -0.00087 
     11     Na1_2p_y     Na1_2p_x      4.02464      -1   1   0           -0.00000 
     11     Na1_2p_z     Na1_2p_x      4.02464      -1   1   0           -0.00000 
     11     Na1_2p_x     Na1_2p_x      4.02464      -1   1   0            0.00000 
     12          Na1          Na1      4.02464       0   1   0           -0.02923 
     12       Na1_3s       Na1_3s      4.02464       0   1   0           -0.02574 
     12     Na1_2p_y       Na1_3s      4.02464       0   1   0           -0.00000 
     12     Na1_2p_z       Na1_3s      4.02464       0   1   0           -0.00087 
     12     Na1_2p_x       Na1_3s      4.02464       0   1   0           -0.00087 
     12       Na1_3s     Na1_2p_y      4.02464       0   1   0           -0.00000 
     12     Na1_2p_y     Na1_2p_y      4.02464       0   1   0           -0.00000 
     12     Na1_2p_z     Na1_2p_y      4.02464       0   1   0           -0.00000 
     12     Na1_2p_x     Na1_2p_y      4.02464       0   1   0           -0.00000 
     12       Na1_3s     Na1_2p_z      4.02464       0   1   0           -0.00087 
     12     Na1_2p_y     Na1_2p_z      4.02464       0   1   0           -0.00000 
     12     Na1_2p_z     Na1_2p_z      4.02464       0   1   0            0.00000 
     12     Na1_2p_x     Na1_2p_z      4.02464       0   1   0           -0.00000 
     12       Na1_3s     Na1_2p_x      4.02464       0   1   0           -0.00087 
     12     Na1_2p_y     Na1_2p_x      4.02464       0   1   0           -0.00000 
     12     Na1_2p_z     Na1_2p_x      4.02464       0   1   0           -0.00000 
     12     Na1_2p_x     Na1_2p_x      4.02464       0   1   0            0.00000 
     13          Na1          Na1      5.69169      -1  -1   1           -0.00034 
     13       Na1_3s       Na1_3s      5.69169      -1  -1   1            0.00044 
     13     Na1_2p_y       Na1_3s      5.69169      -1  -1   1           -0.00000 
     13     Na1_2p_z       Na1_3s      5.69169      -1  -1   1           -0.00039 
     13     Na1_2p_x       Na1_3s      5.69169      -1  -1   1           -0.00000 
     13       Na1_3s     Na1_2p_y      5.69169      -1  -1   1           -0.00000 
     13     Na1_2p_y     Na1_2p_y      5.69169      -1  -1   1           -0.00000 
     13     Na1_2p_z     Na1_2p_y      5.69169      -1  -1   1           -0.00000 
     13     Na1_2p_x     Na1_2p_y      5.69169      -1  -1   1           -0.00000 
     13       Na1_3s     Na1_2p_z      5.69169      -1  -1   1           -0.00039 
     13     Na1_2p_y     Na1_2p_z      5.69169      -1  -1   1           -0.00000 
     13     Na1_2p_z     Na1_2p_z      5.69169      -1  -1   1            0.00000 
     13     Na1_2p_x     Na1_2p_z      5.69169      -1  -1   1           -0.00000 
     13       Na1_3s     Na1_2p_x      5.69169      -1  -1   1           -0.00000 
     13     Na1_2p_y     Na1_2p_x      5.69169      -1  -1   1           -0.00000 
     13     Na1_2p_z     Na1_2p_x      5.69169      -1  -1   1           -0.00000 
     13     Na1_2p_x     Na1_2p_x      5.69169      -1  -1   1           -0.00000 
     14          Na1          Na1      4.02464       0  -1   1           -0.02923 
     14       Na1_3s       Na1_3s      4.02464       0  -1   1           -0.02574 
     14     Na1_2p_y       Na1_3s      4.02464       0  -1   1           -0.00087 
     14     Na1_2p_z       Na1_3s      4.02464       0  -1   1           -0.00087 
     14     Na1_2p_x       Na1_3s      4.02464       0  -1   1           -0.00000 
     14       Na1_3s     Na1_2p_y      4.02464       0  -1   1           -0.00087 
     14     Na1_2p_y     Na1_2p_y      4.02464       0  -1   1            0.00000 
     14     Na1_2p_z     Na1_2p_y      4.02464       0  -1   1           -0.00000 
     14     Na1_2p_x     Na1_2p_y      4.02464       0  -1   1           -0.00000 
     14       Na1_3s     Na1_2p_z      4.02464       0  -1   1           -0.00087 
     14     Na1_2p_y     Na1_2p_z      4.02464       0  -1   1           -0.00000 
     14     Na1_2p_z     Na1_2p_z      4.02464       0  -1   1            0.00000 
     14     Na1_2p_x     Na1_2p_z      4.02464       0  -1   1           -0.00000 
     14       Na1_3s     Na1_2p_x      4.02464       0  -1   1           -0.00000 
     14     Na1_2p_y     Na1_2p_x      4.02464       0  -1   1           -0.00000 
     14     Na1_2p_z     Na1_2p_x      4.02464       0  -1   1           -0.00000 
     14     Na1_2p_x     Na1_2p_x      4.02464       0  -1   1           -0.00000 
     15          Na1          Na1      5.69169       1  -1   1           -0.00034 
     15       Na1_3s       Na1_3s      5.69169       1  -1   1            0.00044 
     15     Na1_2p_y       Na1_3s      5.69169       1  -1   1           -0.00039 
     15     Na1_2p_z       Na1_3s      5.69169       1  -1   1           -0.00000 
     15     Na1_2p_x       Na1_3s      5.69169       1  -1   1           -0.00000 
     15       Na1_3s     Na1_2p_y      5.69169       1  -1   1           -0.00039 
     15     Na1_2p_y     Na1_2p_y      5.69169       1  -1   1            0.00000 
     15     Na1_2p_z     Na1_2p_y      5.69169       1  -1   1           -0.00000 
     15     Na1_2p_x     Na1_2p_y      5.69169       1  -1   1           -0.00000 
     15       Na1_3s     Na1_2p_z      5.69169       1  -1   1           -0.00000 
     15     Na1_2p_y     Na1_2p_z      5.69169       1  -1   1           -0.00000 
     15     Na1_2p_z     Na1_2p_z      5.69169       1  -1   1           -0.00000 
     15     Na1_2p_x     Na1_2p_z      5.69169       1  -1   1           -0.00000 
     15       Na1_3s     Na1_2p_x      5.69169       1  -1   1           -0.00000 
     15     Na1_2p_y     Na1_2p_x      5.69169       1  -1   1           -0.00000 
     15     Na1_2p_z     Na1_2p_x      5.69169       1  -1   1           -0.00000 
     15     Na1_2p_x     Na1_2p_x      5.69169       1  -1   1           -0.00000 
     16          Na1          Na1      4.02464      -1   0   1           -0.02923 
     16       Na1_3s       Na1_3s      4.02464      -1   0   1           -0.02574 
     16     Na1_2p_y       Na1_3s      4.02464      -1   0   1           -0.00000 
     16     Na1_2p_z       Na1_3s      4.02464      -1   0   1           -0.00087 
     16     Na1_2p_x       Na1_3s      4.02464      -1   0   1           -0.00087 
     16       Na1_3s     Na1_2p_y      4.02464      -1   0   1           -0.00000 
     16     Na1_2p_y     Na1_2p_y      4.02464      -1   0   1           -0.00000 
     16     Na1_2p_z     Na1_2p_y      4.02464      -1   0   1           -0.00000 
     16     Na1_2p_x     Na1_2p_y      4.02464      -1   0   1           -0.00000 
     16       Na1_3s     Na1_2p_z      4.02464      -1   0   1           -0.00087 
     16     Na1_2p_y     Na1_2p_z      4.02464      -1   0   1           -0.00000 
     16     Na1_2p_z     Na1_2p_z      4.02464      -1   0   1            0.00000 
     16     Na1_2p_x     Na1_2p_z      4.02464      -1   0   1           -0.00000 
     16       Na1_3s     Na1_2p_x      4.02464      -1   0   1           -0.00087 
     16     Na1_2p_y     Na1_2p_x      4.02464      -1   0   1           -0.00000 
     16     Na1_2p_z     Na1_2p_x      4.02464      -1   0   1           -0.00000 
     16     Na1_2p_x     Na1_2p_x      4.02464      -1   0   1            0.00000 
     17          Na1          Na1      4.02464       0   0   1           -0.02923 
     17       Na1_3s       Na1_3s      4.02464       0   0   1           -0.02574 
     17     Na1_2p_y       Na1_3s      4.02464       0   0   1           -0.00087 
     17     Na1_2p_z       Na1_3s      4.02464       0   0   1           -0.00000 
     17     Na1_2p_x       Na1_3s      4.02464       0   0   1           -0.00087 
     17       Na1_3s     Na1_2p_y      4.02464       0   0   1           -0.00087 
     17     Na1_2p_y     Na1_2p_y      4.02464       0   0   1            0.00000 
     17     Na1_2p_z     Na1_2p_y      4.02464       0   0   1           -0.00000 
     17     Na1_2p_x     Na1_2p_y      4.02464       0   0   1           -0.00000 
     17       Na1_3s     Na1_2p_z      4.02464       0   0   1           -0.00000 
     17     Na1_2p_y     Na1_2p_z      4.02464       0   0   1           -0.00000 
     17     Na1_2p_z     Na1_2p_z      4.02464       0   0   1           -0.00000 
     17     Na1_2p_x     Na1_2p_z      4.02464       0   0   1           -0.00000 
     17       Na1_3s     Na1_2p_x      4.02464       0   0   1           -0.00087 
     17     Na1_2p_y     Na1_2p_x      4.02464       0   0   1           -0.00000 
     17     Na1_2p_z     Na1_2p_x      4.02464       0   0   1           -0.00000 
     17     Na1_2p_x     Na1_2p_x      4.02464       0   0   1            0.00000 
     18          Na1          Na1      5.69169      -1   1   1           -0.00034 
     18       Na1_3s       Na1_3s      5.69169      -1   1   1            0.00044 
     18     Na1_2p_y       Na1_3s      5.69169      -1   1   1           -0.00000 
     18     Na1_2p_z       Na1_3s      5.69169      -1   1   1           -0.00000 
     18     Na1_2p_x       Na1_3s      5.69169      -1   1   1           -0.00039 
     18       Na1_3s     Na1_2p_y      5.69169      -1   1   1           -0.00000 
     18     Na1_2p_y     Na1_2p_y      5.69169      -1   1   1           -0.00000 
     18     Na1_2p_z     Na1_2p_y      5.69169      -1   1   1           -0.00000 
     18     Na1_2p_x     Na1_2p_y      5.69169      -1   1   1           -0.00000 
     18       Na1_3s     Na1_2p_z      5.69169      -1   1   1           -0.00000 
     18     Na1_2p_y     Na1_2p_z      5.69169      -1   1   1           -0.00000 
     18     Na1_2p_z     Na1_2p_z      5.69169      -1   1   1           -0.00000 
     18     Na1_2p_x     Na1_2p_z      5.69169      -1   1   1           -0.00000 
     18       Na1_3s     Na1_2p_x      5.69169      -1   1   1           -0.00039 
     18     Na1_2p_y     Na1_2p_x      5.69169      -1   1   1           -0.00000 
     18     Na1_2p_z     Na1_2p_x      5.69169      -1   1   1           -0.00000 
     18     Na1_2p_x     Na1_2p_x      5.69169      -1   1   1            0.00000 
     19          Cl2          Na1      4.92915       1   1  -1           -0.00353 
     19       Cl2_3s       Na1_3s      4.92915       1   1  -1           -0.00168 
     19     Cl2_3p_y       Na1_3s      4.92915       1   1  -1           -0.00057 
     19     Cl2_3p_z       Na1_3s      4.92915       1   1  -1           -0.00057 
     19     Cl2_3p_x       Na1_3s      4.92915       1   1  -1           -0.00057 
     19       Cl2_3s     Na1_2p_y      4.92915       1   1  -1           -0.00003 
     19     Cl2_3p_y     Na1_2p_y      4.92915       1   1  -1           -0.00000 
     19     Cl2_3p_z     Na1_2p_y      4.92915       1   1  -1           -0.00001 
     19     Cl2_3p_x     Na1_2p_y      4.92915       1   1  -1           -0.00001 
     19       Cl2_3s     Na1_2p_z      4.92915       1   1  -1           -0.00003 
     19     Cl2_3p_y     Na1_2p_z      4.92915       1   1  -1           -0.00001 
     19     Cl2_3p_z     Na1_2p_z      4.92915       1   1  -1           -0.00000 
     19     Cl2_3p_x     Na1_2p_z      4.92915       1   1  -1           -0.00001 
     19       Cl2_3s     Na1_2p_x      4.92915       1   1  -1           -0.00003 
     19     Cl2_3p_y     Na1_2p_x      4.92915       1   1  -1           -0.00001 
     19     Cl2_3p_z     Na1_2p_x      4.92915       1   1  -1           -0.00001 
     19     Cl2_3p_x     Na1_2p_x      4.92915       1   1  -1           -0.00000 
     20          Cl2          Na1      4.92915       0   0   0           -0.00353 
     20       Cl2_3s       Na1_3s      4.92915       0   0   0           -0.00168 
     20     Cl2_3p_y       Na1_3s      4.92915       0   0   0           -0.00057 
     20     Cl2_3p_z       Na1_3s      4.92915       0   0   0           -0.00057 
     20     Cl2_3p_x       Na1_3s      4.92915       0   0   0           -0.00057 
     20       Cl2_3s     Na1_2p_y      4.92915       0   0   0           -0.00003 
     20     Cl2_3p_y     Na1_2p_y      4.92915       0   0   0           -0.00000 
     20     Cl2_3p_z     Na1_2p_y      4.92915       0   0   0           -0.00001 
     20     Cl2_3p_x     Na1_2p_y      4.92915       0   0   0           -0.00001 
     20       Cl2_3s     Na1_2p_z      4.92915       0   0   0           -0.00003 
     20     Cl2_3p_y     Na1_2p_z      4.92915       0   0   0           -0.00001 
     20     Cl2_3p_z     Na1_2p_z      4.92915       0   0   0           -0.00000 
     20     Cl2_3p_x     Na1_2p_z      4.92915       0   0   0           -0.00001 
     20       Cl2_3s     Na1_2p_x      4.92915       0   0   0           -0.00003 
     20     Cl2_3p_y     Na1_2p_x      4.92915       0   0   0           -0.00001 
     20     Cl2_3p_z     Na1_2p_x      4.92915       0   0   0           -0.00001 
     20     Cl2_3p_x     Na1_2p_x      4.92915       0   0   0           -0.00000 
     21          Cl2          Na1      2.84585       1   0   0           -0.56541 
     21       Cl2_3s       Na1_3s      2.84585       1   0   0           -0.32499 
     21     Cl2_3p_y       Na1_3s      2.84585       1   0   0           -0.00000 
     21     Cl2_3p_z       Na1_3s      2.84585       1   0   0           -0.00000 
     21     Cl2_3p_x       Na1_3s      2.84585       1   0   0           -0.24060 
     21       Cl2_3s     Na1_2p_y      2.84585       1   0   0           -0.00000 
     21     Cl2_3p_y     Na1_2p_y      2.84585       1   0   0            0.00012 
     21     Cl2_3p_z     Na1_2p_y      2.84585       1   0   0            0.00000 
     21     Cl2_3p_x     Na1_2p_y      2.84585       1   0   0            0.00000 
     21       Cl2_3s     Na1_2p_z      2.84585       1   0   0           -0.00000 
     21     Cl2_3p_y     Na1_2p_z      2.84585       1   0   0            0.00000 
     21     Cl2_3p_z     Na1_2p_z      2.84585       1   0   0            0.00012 
     21     Cl2_3p_x     Na1_2p_z      2.84585       1   0   0            0.00000 
     21       Cl2_3s     Na1_2p_x      2.84585       1   0   0            0.00031 
     21     Cl2_3p_y     Na1_2p_x      2.84585       1   0   0           -0.00000 
     21     Cl2_3p_z     Na1_2p_x      2.84585       1   0   0           -0.00000 
     21     Cl2_3p_x     Na1_2p_x      2.84585       1   0   0           -0.00036 
     22          Cl2          Na1      4.92915       2   0   0           -0.00353 
     22       Cl2_3s       Na1_3s      4.92915       2   0   0           -0.00167 
     22     Cl2_3p_y       Na1_3s      4.92915       2   0   0           -0.00057 