  COHP#       atomMU       atomNU     distance     translation      ICOHP (at) eF   for spin  1
      1          Cd1          Cd1      5.50140       1  -1  -1           -0.00003 
      1       Cd1_5s       Cd1_5s      5.50140       1  -1  -1           -0.00003 
      1    Cd1_4d_xy       Cd1_5s      5.50140       1  -1  -1           -0.00000 
      1    Cd1_4d_yz       Cd1_5s      5.50140       1  -1  -1           -0.00000 
      1   Cd1_4d_z^2       Cd1_5s      5.50140       1  -1  -1           -0.00000 
      1    Cd1_4d_xz       Cd1_5s      5.50140       1  -1  -1           -0.00000 
      1 Cd1_4d_x^2-y^2       Cd1_5s      5.50140       1  -1  -1           -0.00000 
      1       Cd1_5s    Cd1_4d_xy      5.50140       1  -1  -1           -0.00000 
      1    Cd1_4d_xy    Cd1_4d_xy      5.50140       1  -1  -1           -0.00000 
      1    Cd1_4d_yz    Cd1_4d_xy      5.50140       1  -1  -1            0.00000 
      1   Cd1_4d_z^2    Cd1_4d_xy      5.50140       1  -1  -1           -0.00000 
      1    Cd1_4d_xz    Cd1_4d_xy      5.50140       1  -1  -1           -0.00000 
      1 Cd1_4d_x^2-y^2    Cd1_4d_xy      5.50140       1  -1  -1           -0.00000 
      1       Cd1_5s    Cd1_4d_yz      5.50140       1  -1  -1           -0.00000 
      1    Cd1_4d_xy    Cd1_4d_yz      5.50140       1  -1  -1            0.00000 
      1    Cd1_4d_yz    Cd1_4d_yz      5.50140       1  -1  -1           -0.00000 
      1   Cd1_4d_z^2    Cd1_4d_yz      5.50140       1  -1  -1           -0.00000 
      1    Cd1_4d_xz    Cd1_4d_yz      5.50140       1  -1  -1           -0.00000 
      1 Cd1_4d_x^2-y^2    Cd1_4d_yz      5.50140       1  -1  -1            0.00000 
      1       Cd1_5s   Cd1_4d_z^2      5.50140       1  -1  -1           -0.00000 
      1    Cd1_4d_xy   Cd1_4d_z^2      5.50140       1  -1  -1           -0.00000 
      1    Cd1_4d_yz   Cd1_4d_z^2      5.50140       1  -1  -1           -0.00000 
      1   Cd1_4d_z^2   Cd1_4d_z^2      5.50140       1  -1  -1           -0.00000 
      1    Cd1_4d_xz   Cd1_4d_z^2      5.50140       1  -1  -1           -0.00000 
      1 Cd1_4d_x^2-y^2   Cd1_4d_z^2      5.50140       1  -1  -1           -0.00000 
      1       Cd1_5s    Cd1_4d_xz      5.50140       1  -1  -1           -0.00000 
      1    Cd1_4d_xy    Cd1_4d_xz      5.50140       1  -1  -1           -0.00000 
      1    Cd1_4d_yz    Cd1_4d_xz      5.50140       1  -1  -1           -0.00000 
      1   Cd1_4d_z^2    Cd1_4d_xz      5.50140       1  -1  -1           -0.00000 
      1    Cd1_4d_xz    Cd1_4d_xz      5.50140       1  -1  -1           -0.00000 
      1 Cd1_4d_x^2-y^2    Cd1_4d_xz      5.50140       1  -1  -1            0.00000 
      1       Cd1_5s Cd1_4d_x^2-y^2      5.50140       1  -1  -1           -0.00000 
      1    Cd1_4d_xy Cd1_4d_x^2-y^2      5.50140       1  -1  -1           -0.00000 
      1    Cd1_4d_yz Cd1_4d_x^2-y^2      5.50140       1  -1  -1            0.00000 
      1   Cd1_4d_z^2 Cd1_4d_x^2-y^2      5.50140       1  -1  -1           -0.00000 
      1    Cd1_4d_xz Cd1_4d_x^2-y^2      5.50140       1  -1  -1            0.00000 
      1 Cd1_4d_x^2-y^2 Cd1_4d_x^2-y^2      5.50140       1  -1  -1           -0.00000 
      2          Cd1          Cd1      3.89008       0   0  -1           -0.00412 
      2       Cd1_5s       Cd1_5s      3.89008       0   0  -1           -0.00282 
      2    Cd1_4d_xy       Cd1_5s      3.89008       0   0  -1           -0.00011 
      2    Cd1_4d_yz       Cd1_5s      3.89008       0   0  -1            0.00000 
      2   Cd1_4d_z^2       Cd1_5s      3.89008       0   0  -1           -0.00053 
      2    Cd1_4d_xz       Cd1_5s      3.89008       0   0  -1           -0.00000 
      2 Cd1_4d_x^2-y^2       Cd1_5s      3.89008       0   0  -1           -0.00001 
      2       Cd1_5s    Cd1_4d_xy      3.89008       0   0  -1           -0.00011 
      2    Cd1_4d_xy    Cd1_4d_xy      3.89008       0   0  -1            0.00000 
      2    Cd1_4d_yz    Cd1_4d_xy      3.89008       0   0  -1           -0.00000 
      2   Cd1_4d_z^2    Cd1_4d_xy      3.89008       0   0  -1            0.00000 
      2    Cd1_4d_xz    Cd1_4d_xy      3.89008       0   0  -1            0.00000 
      2 Cd1_4d_x^2-y^2    Cd1_4d_xy      3.89008       0   0  -1           -0.00000 
      2       Cd1_5s    Cd1_4d_yz      3.89008       0   0  -1            0.00000 
      2    Cd1_4d_xy    Cd1_4d_yz      3.89008       0   0  -1           -0.00000 
      2    Cd1_4d_yz    Cd1_4d_yz      3.89008       0   0  -1            0.00000 
      2   Cd1_4d_z^2    Cd1_4d_yz      3.89008       0   0  -1            0.00000 
      2    Cd1_4d_xz    Cd1_4d_yz      3.89008       0   0  -1            0.00000 
      2 Cd1_4d_x^2-y^2    Cd1_4d_yz      3.89008       0   0  -1           -0.00000 
      2       Cd1_5s   Cd1_4d_z^2      3.89008       0   0  -1           -0.00053 
      2    Cd1_4d_xy   Cd1_4d_z^2      3.89008       0   0  -1            0.00000 
      2    Cd1_4d_yz   Cd1_4d_z^2      3.89008       0   0  -1           -0.00000 
      2   Cd1_4d_z^2   Cd1_4d_z^2      3.89008       0   0  -1            0.00000 
      2    Cd1_4d_xz   Cd1_4d_z^2      3.89008       0   0  -1           -0.00000 
      2 Cd1_4d_x^2-y^2   Cd1_4d_z^2      3.89008       0   0  -1            0.00000 
      2       Cd1_5s    Cd1_4d_xz      3.89008       0   0  -1            0.00000 
      2    Cd1_4d_xy    Cd1_4d_xz      3.89008       0   0  -1            0.00000 
      2    Cd1_4d_yz    Cd1_4d_xz      3.89008       0   0  -1            0.00000 
      2   Cd1_4d_z^2    Cd1_4d_xz      3.89008       0   0  -1            0.00000 
      2    Cd1_4d_xz    Cd1_4d_xz      3.89008       0   0  -1            0.00000 
      2 Cd1_4d_x^2-y^2    Cd1_4d_xz      3.89008       0   0  -1           -0.00000 
      2       Cd1_5s Cd1_4d_x^2-y^2      3.89008       0   0  -1           -0.00001 
      2    Cd1_4d_xy Cd1_4d_x^2-y^2      3.89008       0   0  -1           -0.00000 
      2    Cd1_4d_yz Cd1_4d_x^2-y^2      3.89008       0   0  -1            0.00000 
      2   Cd1_4d_z^2 Cd1_4d_x^2-y^2      3.89008       0   0  -1            0.00000 
      2    Cd1_4d_xz Cd1_4d_x^2-y^2      3.89008       0   0  -1            0.00000 
      2 Cd1_4d_x^2-y^2 Cd1_4d_x^2-y^2      3.89008       0   0  -1           -0.00000 
      3          Cd1          Cd1      3.89008       1   0  -1           -0.00412 
      3       Cd1_5s       Cd1_5s      3.89008       1   0  -1           -0.00282 
      3    Cd1_4d_xy       Cd1_5s      3.89008       1   0  -1           -0.00003 
      3    Cd1_4d_yz       Cd1_5s      3.89008       1   0  -1           -0.00008 
      3   Cd1_4d_z^2       Cd1_5s      3.89008       1   0  -1            0.00000 
      3    Cd1_4d_xz       Cd1_5s      3.89008       1   0  -1           -0.00023 
      3 Cd1_4d_x^2-y^2       Cd1_5s      3.89008       1   0  -1           -0.00032 
      3       Cd1_5s    Cd1_4d_xy      3.89008       1   0  -1           -0.00003 
      3    Cd1_4d_xy    Cd1_4d_xy      3.89008       1   0  -1            0.00000 
      3    Cd1_4d_yz    Cd1_4d_xy      3.89008       1   0  -1            0.00000 
      3   Cd1_4d_z^2    Cd1_4d_xy      3.89008       1   0  -1            0.00000 
      3    Cd1_4d_xz    Cd1_4d_xy      3.89008       1   0  -1            0.00000 
      3 Cd1_4d_x^2-y^2    Cd1_4d_xy      3.89008       1   0  -1            0.00000 
      3       Cd1_5s    Cd1_4d_yz      3.89008       1   0  -1           -0.00008 
      3    Cd1_4d_xy    Cd1_4d_yz      3.89008       1   0  -1            0.00000 
      3    Cd1_4d_yz    Cd1_4d_yz      3.89008       1   0  -1            0.00000 
      3   Cd1_4d_z^2    Cd1_4d_yz      3.89008       1   0  -1            0.00000 
      3    Cd1_4d_xz    Cd1_4d_yz      3.89008       1   0  -1           -0.00000 
      3 Cd1_4d_x^2-y^2    Cd1_4d_yz      3.89008       1   0  -1            0.00000 
      3       Cd1_5s   Cd1_4d_z^2      3.89008       1   0  -1            0.00000 
      3    Cd1_4d_xy   Cd1_4d_z^2      3.89008       1   0  -1            0.00000 
      3    Cd1_4d_yz   Cd1_4d_z^2      3.89008       1   0  -1            0.00000 
      3   Cd1_4d_z^2   Cd1_4d_z^2      3.89008       1   0  -1           -0.00000 
      3    Cd1_4d_xz   Cd1_4d_z^2      3.89008       1   0  -1            0.00000 
      3 Cd1_4d_x^2-y^2   Cd1_4d_z^2      3.89008       1   0  -1            0.00000 
      3       Cd1_5s    Cd1_4d_xz      3.89008       1   0  -1           -0.00023 
      3    Cd1_4d_xy    Cd1_4d_xz      3.89008       1   0  -1            0.00000 
      3    Cd1_4d_yz    Cd1_4d_xz      3.89008       1   0  -1           -0.00000 
      3   Cd1_4d_z^2    Cd1_4d_xz      3.89008       1   0  -1            0.00000 
      3    Cd1_4d_xz    Cd1_4d_xz      3.89008       1   0  -1            0.00000 
      3 Cd1_4d_x^2-y^2    Cd1_4d_xz      3.89008       1   0  -1            0.00000 
      3       Cd1_5s Cd1_4d_x^2-y^2      3.89008       1   0  -1           -0.00032 
      3    Cd1_4d_xy Cd1_4d_x^2-y^2      3.89008       1   0  -1            0.00000 
      3    Cd1_4d_yz Cd1_4d_x^2-y^2      3.89008       1   0  -1            0.00000 
      3   Cd1_4d_z^2 Cd1_4d_x^2-y^2      3.89008       1   0  -1            0.00000 
      3    Cd1_4d_xz Cd1_4d_x^2-y^2      3.89008       1   0  -1            0.00000 
      3 Cd1_4d_x^2-y^2 Cd1_4d_x^2-y^2      3.89008       1   0  -1            0.00000 
      4          Cd1          Cd1      5.50140      -1   1  -1           -0.00003 
      4       Cd1_5s       Cd1_5s      5.50140      -1   1  -1           -0.00003 
      4    Cd1_4d_xy       Cd1_5s      5.50140      -1   1  -1           -0.00000 
      4    Cd1_4d_yz       Cd1_5s      5.50140      -1   1  -1           -0.00000 
      4   Cd1_4d_z^2       Cd1_5s      5.50140      -1   1  -1           -0.00000 
      4    Cd1_4d_xz       Cd1_5s      5.50140      -1   1  -1           -0.00000 
      4 Cd1_4d_x^2-y^2       Cd1_5s      5.50140      -1   1  -1           -0.00000 
      4       Cd1_5s    Cd1_4d_xy      5.50140      -1   1  -1           -0.00000 
      4    Cd1_4d_xy    Cd1_4d_xy      5.50140      -1   1  -1           -0.00000 
      4    Cd1_4d_yz    Cd1_4d_xy      5.50140      -1   1  -1            0.00000 
      4   Cd1_4d_z^2    Cd1_4d_xy      5.50140      -1   1  -1           -0.00000 
      4    Cd1_4d_xz    Cd1_4d_xy      5.50140      -1   1  -1           -0.00000 
      4 Cd1_4d_x^2-y^2    Cd1_4d_xy      5.50140      -1   1  -1           -0.00000 
      4       Cd1_5s    Cd1_4d_yz      5.50140      -1   1  -1           -0.00000 
      4    Cd1_4d_xy    Cd1_4d_yz      5.50140      -1   1  -1            0.00000 
      4    Cd1_4d_yz    Cd1_4d_yz      5.50140      -1   1  -1           -0.00000 
      4   Cd1_4d_z^2    Cd1_4d_yz      5.50140      -1   1  -1           -0.00000 
      4    Cd1_4d_xz    Cd1_4d_yz      5.50140      -1   1  -1           -0.00000 
      4 Cd1_4d_x^2-y^2    Cd1_4d_yz      5.50140      -1   1  -1            0.00000 
      4       Cd1_5s   Cd1_4d_z^2      5.50140      -1   1  -1           -0.00000 
      4    Cd1_4d_xy   Cd1_4d_z^2      5.50140      -1   1  -1           -0.00000 
      4    Cd1_4d_yz   Cd1_4d_z^2      5.50140      -1   1  -1           -0.00000 
      4   Cd1_4d_z^2   Cd1_4d_z^2      5.50140      -1   1  -1           -0.00000 
      4    Cd1_4d_xz   Cd1_4d_z^2      5.50140      -1   1  -1           -0.00000 
      4 Cd1_4d_x^2-y^2   Cd1_4d_z^2      5.50140      -1   1  -1           -0.00000 
      4       Cd1_5s    Cd1_4d_xz      5.50140      -1   1  -1           -0.00000 
      4    Cd1_4d_xy    Cd1_4d_xz      5.50140      -1   1  -1           -0.00000 
      4    Cd1_4d_yz    Cd1_4d_xz      5.50140      -1   1  -1           -0.00000 
      4   Cd1_4d_z^2    Cd1_4d_xz      5.50140      -1   1  -1           -0.00000 
      4    Cd1_4d_xz    Cd1_4d_xz      5.50140      -1   1  -1           -0.00000 
      4 Cd1_4d_x^2-y^2    Cd1_4d_xz      5.50140      -1   1  -1            0.00000 
      4       Cd1_5s Cd1_4d_x^2-y^2      5.50140      -1   1  -1           -0.00000 
      4    Cd1_4d_xy Cd1_4d_x^2-y^2      5.50140      -1   1  -1           -0.00000 
      4    Cd1_4d_yz Cd1_4d_x^2-y^2      5.50140      -1   1  -1            0.00000 
      4   Cd1_4d_z^2 Cd1_4d_x^2-y^2      5.50140      -1   1  -1           -0.00000 
      4    Cd1_4d_xz Cd1_4d_x^2-y^2      5.50140      -1   1  -1            0.00000 
      4 Cd1_4d_x^2-y^2 Cd1_4d_x^2-y^2      5.50140      -1   1  -1           -0.00000 
      5          Cd1          Cd1      3.89008       0   1  -1           -0.00412 
      5       Cd1_5s       Cd1_5s      3.89008       0   1  -1           -0.00282 
      5    Cd1_4d_xy       Cd1_5s      3.89008       0   1  -1           -0.00003 
      5    Cd1_4d_yz       Cd1_5s      3.89008       0   1  -1           -0.00009 
      5   Cd1_4d_z^2       Cd1_5s      3.89008       0   1  -1            0.00000 
      5    Cd1_4d_xz       Cd1_5s      3.89008       0   1  -1           -0.00022 
      5 Cd1_4d_x^2-y^2       Cd1_5s      3.89008       0   1  -1           -0.00032 
      5       Cd1_5s    Cd1_4d_xy      3.89008       0   1  -1           -0.00003 
      5    Cd1_4d_xy    Cd1_4d_xy      3.89008       0   1  -1           -0.00000 
      5    Cd1_4d_yz    Cd1_4d_xy      3.89008       0   1  -1           -0.00000 
      5   Cd1_4d_z^2    Cd1_4d_xy      3.89008       0   1  -1           -0.00000 
      5    Cd1_4d_xz    Cd1_4d_xy      3.89008       0   1  -1            0.00000 
      5 Cd1_4d_x^2-y^2    Cd1_4d_xy      3.89008       0   1  -1            0.00000 
      5       Cd1_5s    Cd1_4d_yz      3.89008       0   1  -1           -0.00009 
      5    Cd1_4d_xy    Cd1_4d_yz      3.89008       0   1  -1           -0.00000 
      5    Cd1_4d_yz    Cd1_4d_yz      3.89008       0   1  -1            0.00000 
      5   Cd1_4d_z^2    Cd1_4d_yz      3.89008       0   1  -1            0.00000 
      5    Cd1_4d_xz    Cd1_4d_yz      3.89008       0   1  -1           -0.00000 
      5 Cd1_4d_x^2-y^2    Cd1_4d_yz      3.89008       0   1  -1            0.00000 
      5       Cd1_5s   Cd1_4d_z^2      3.89008       0   1  -1            0.00000 
      5    Cd1_4d_xy   Cd1_4d_z^2      3.89008       0   1  -1           -0.00000 
      5    Cd1_4d_yz   Cd1_4d_z^2      3.89008       0   1  -1            0.00000 
      5   Cd1_4d_z^2   Cd1_4d_z^2      3.89008       0   1  -1           -0.00000 
      5    Cd1_4d_xz   Cd1_4d_z^2      3.89008       0   1  -1            0.00000 
      5 Cd1_4d_x^2-y^2   Cd1_4d_z^2      3.89008       0   1  -1            0.00000 
      5       Cd1_5s    Cd1_4d_xz      3.89008       0   1  -1           -0.00022 
      5    Cd1_4d_xy    Cd1_4d_xz      3.89008       0   1  -1            0.00000 
      5    Cd1_4d_yz    Cd1_4d_xz      3.89008       0   1  -1           -0.00000 
      5   Cd1_4d_z^2    Cd1_4d_xz      3.89008       0   1  -1            0.00000 
      5    Cd1_4d_xz    Cd1_4d_xz      3.89008       0   1  -1            0.00000 
      5 Cd1_4d_x^2-y^2    Cd1_4d_xz      3.89008       0   1  -1            0.00000 
      5       Cd1_5s Cd1_4d_x^2-y^2      3.89008       0   1  -1           -0.00032 
      5    Cd1_4d_xy Cd1_4d_x^2-y^2      3.89008       0   1  -1            0.00000 
      5    Cd1_4d_yz Cd1_4d_x^2-y^2      3.89008       0   1  -1            0.00000 
      5   Cd1_4d_z^2 Cd1_4d_x^2-y^2      3.89008       0   1  -1            0.00000 
      5    Cd1_4d_xz Cd1_4d_x^2-y^2      3.89008       0   1  -1            0.00000 
      5 Cd1_4d_x^2-y^2 Cd1_4d_x^2-y^2      3.89008       0   1  -1           -0.00000 
      6          Cd1          Cd1      5.50140       1   1  -1           -0.00003 
      6       Cd1_5s       Cd1_5s      5.50140       1   1  -1           -0.00003 
      6    Cd1_4d_xy       Cd1_5s      5.50140       1   1  -1           -0.00000 
      6    Cd1_4d_yz       Cd1_5s      5.50140       1   1  -1            0.00000 
      6   Cd1_4d_z^2       Cd1_5s      5.50140       1   1  -1           -0.00000 
      6    Cd1_4d_xz       Cd1_5s      5.50140       1   1  -1            0.00000 
      6 Cd1_4d_x^2-y^2       Cd1_5s      5.50140       1   1  -1           -0.00000 
      6       Cd1_5s    Cd1_4d_xy      5.50140       1   1  -1           -0.00000 
      6    Cd1_4d_xy    Cd1_4d_xy      5.50140       1   1  -1           -0.00000 
      6    Cd1_4d_yz    Cd1_4d_xy      5.50140       1   1  -1           -0.00000 
      6   Cd1_4d_z^2    Cd1_4d_xy      5.50140       1   1  -1           -0.00000 
      6    Cd1_4d_xz    Cd1_4d_xy      5.50140       1   1  -1           -0.00000 
      6 Cd1_4d_x^2-y^2    Cd1_4d_xy      5.50140       1   1  -1            0.00000 
      6       Cd1_5s    Cd1_4d_yz      5.50140       1   1  -1            0.00000 
      6    Cd1_4d_xy    Cd1_4d_yz      5.50140       1   1  -1           -0.00000 
      6    Cd1_4d_yz    Cd1_4d_yz      5.50140       1   1  -1           -0.00000 
      6   Cd1_4d_z^2    Cd1_4d_yz      5.50140       1   1  -1            0.00000 
      6    Cd1_4d_xz    Cd1_4d_yz      5.50140       1   1  -1           -0.00000 
      6 Cd1_4d_x^2-y^2    Cd1_4d_yz      5.50140       1   1  -1           -0.00000 
      6       Cd1_5s   Cd1_4d_z^2      5.50140       1   1  -1           -0.00000 
      6    Cd1_4d_xy   Cd1_4d_z^2      5.50140       1   1  -1           -0.00000 
      6    Cd1_4d_yz   Cd1_4d_z^2      5.50140       1   1  -1           -0.00000 
      6   Cd1_4d_z^2   Cd1_4d_z^2      5.50140       1   1  -1           -0.00000 
      6    Cd1_4d_xz   Cd1_4d_z^2      5.50140       1   1  -1           -0.00000 
      6 Cd1_4d_x^2-y^2   Cd1_4d_z^2      5.50140       1   1  -1           -0.00000 
      6       Cd1_5s    Cd1_4d_xz      5.50140       1   1  -1            0.00000 
      6    Cd1_4d_xy    Cd1_4d_xz      5.50140       1   1  -1           -0.00000 
      6    Cd1_4d_yz    Cd1_4d_xz      5.50140       1   1  -1           -0.00000 
      6   Cd1_4d_z^2    Cd1_4d_xz      5.50140       1   1  -1            0.00000 
      6    Cd1_4d_xz    Cd1_4d_xz      5.50140       1   1  -1           -0.00000 
      6 Cd1_4d_x^2-y^2    Cd1_4d_xz      5.50140       1   1  -1            0.00000 
      6       Cd1_5s Cd1_4d_x^2-y^2      5.50140       1   1  -1           -0.00000 
      6    Cd1_4d_xy Cd1_4d_x^2-y^2      5.50140       1   1  -1            0.00000 
      6    Cd1_4d_yz Cd1_4d_x^2-y^2      5.50140       1   1  -1            0.00000 
      6   Cd1_4d_z^2 Cd1_4d_x^2-y^2      5.50140       1   1  -1           -0.00000 
      6    Cd1_4d_xz Cd1_4d_x^2-y^2      5.50140       1   1  -1            0.00000 
      6 Cd1_4d_x^2-y^2 Cd1_4d_x^2-y^2      5.50140       1   1  -1           -0.00000 
      7          Cd1          Cd1      3.89008       0  -1   0           -0.00412 
      7       Cd1_5s       Cd1_5s      3.89008       0  -1   0           -0.00282 
      7    Cd1_4d_xy       Cd1_5s      3.89008       0  -1   0           -0.00003 
      7    Cd1_4d_yz       Cd1_5s      3.89008       0  -1   0           -0.00009 
      7   Cd1_4d_z^2       Cd1_5s      3.89008       0  -1   0            0.00000 
      7    Cd1_4d_xz       Cd1_5s      3.89008       0  -1   0           -0.00022 
      7 Cd1_4d_x^2-y^2       Cd1_5s      3.89008       0  -1   0           -0.00032 
      7       Cd1_5s    Cd1_4d_xy      3.89008       0  -1   0           -0.00003 
      7    Cd1_4d_xy    Cd1_4d_xy      3.89008       0  -1   0           -0.00000 
      7    Cd1_4d_yz    Cd1_4d_xy      3.89008       0  -1   0           -0.00000 
      7   Cd1_4d_z^2    Cd1_4d_xy      3.89008       0  -1   0           -0.00000 
      7    Cd1_4d_xz    Cd1_4d_xy      3.89008       0  -1   0            0.00000 
      7 Cd1_4d_x^2-y^2    Cd1_4d_xy      3.89008       0  -1   0            0.00000 
      7       Cd1_5s    Cd1_4d_yz      3.89008       0  -1   0           -0.00009 
      7    Cd1_4d_xy    Cd1_4d_yz      3.89008       0  -1   0           -0.00000 
      7    Cd1_4d_yz    Cd1_4d_yz      3.89008       0  -1   0            0.00000 
      7   Cd1_4d_z^2    Cd1_4d_yz      3.89008       0  -1   0            0.00000 
      7    Cd1_4d_xz    Cd1_4d_yz      3.89008       0  -1   0           -0.00000 
      7 Cd1_4d_x^2-y^2    Cd1_4d_yz      3.89008       0  -1   0            0.00000 
      7       Cd1_5s   Cd1_4d_z^2      3.89008       0  -1   0            0.00000 
      7    Cd1_4d_xy   Cd1_4d_z^2      3.89008       0  -1   0           -0.00000 
      7    Cd1_4d_yz   Cd1_4d_z^2      3.89008       0  -1   0            0.00000 
      7   Cd1_4d_z^2   Cd1_4d_z^2      3.89008       0  -1   0           -0.00000 
      7    Cd1_4d_xz   Cd1_4d_z^2      3.89008       0  -1   0            0.00000 
      7 Cd1_4d_x^2-y^2   Cd1_4d_z^2      3.89008       0  -1   0            0.00000 
      7       Cd1_5s    Cd1_4d_xz      3.89008       0  -1   0           -0.00022 
      7    Cd1_4d_xy    Cd1_4d_xz      3.89008       0  -1   0            0.00000 
      7    Cd1_4d_yz    Cd1_4d_xz      3.89008       0  -1   0           -0.00000 
      7   Cd1_4d_z^2    Cd1_4d_xz      3.89008       0  -1   0            0.00000 
      7    Cd1_4d_xz    Cd1_4d_xz      3.89008       0  -1   0            0.00000 
      7 Cd1_4d_x^2-y^2    Cd1_4d_xz      3.89008       0  -1   0            0.00000 
      7       Cd1_5s Cd1_4d_x^2-y^2      3.89008       0  -1   0           -0.00032 
      7    Cd1_4d_xy Cd1_4d_x^2-y^2      3.89008       0  -1   0            0.00000 
      7    Cd1_4d_yz Cd1_4d_x^2-y^2      3.89008       0  -1   0            0.00000 
      7   Cd1_4d_z^2 Cd1_4d_x^2-y^2      3.89008       0  -1   0            0.00000 
      7    Cd1_4d_xz Cd1_4d_x^2-y^2      3.89008       0  -1   0            0.00000 
      7 Cd1_4d_x^2-y^2 Cd1_4d_x^2-y^2      3.89008       0  -1   0           -0.00000 
      8          Cd1          Cd1      3.89008       1  -1   0           -0.00412 
      8       Cd1_5s       Cd1_5s      3.89008       1  -1   0           -0.00282 
      8    Cd1_4d_xy       Cd1_5s      3.89008       1  -1   0           -0.00012 
      8    Cd1_4d_yz       Cd1_5s      3.89008       1  -1   0           -0.00000 
      8   Cd1_4d_z^2       Cd1_5s      3.89008       1  -1   0           -0.00052 
      8    Cd1_4d_xz       Cd1_5s      3.89008       1  -1   0            0.00000 
      8 Cd1_4d_x^2-y^2       Cd1_5s      3.89008       1  -1   0           -0.00002 
      8       Cd1_5s    Cd1_4d_xy      3.89008       1  -1   0           -0.00012 
      8    Cd1_4d_xy    Cd1_4d_xy      3.89008       1  -1   0           -0.00000 
      8    Cd1_4d_yz    Cd1_4d_xy      3.89008       1  -1   0            0.00000 
      8   Cd1_4d_z^2    Cd1_4d_xy      3.89008       1  -1   0            0.00000 
      8    Cd1_4d_xz    Cd1_4d_xy      3.89008       1  -1   0            0.00000 
      8 Cd1_4d_x^2-y^2    Cd1_4d_xy      3.89008       1  -1   0            0.00000 
      8       Cd1_5s    Cd1_4d_yz      3.89008       1  -1   0            0.00000 
      8    Cd1_4d_xy    Cd1_4d_yz      3.89008       1  -1   0            0.00000 
      8    Cd1_4d_yz    Cd1_4d_yz      3.89008       1  -1   0           -0.00000 
      8   Cd1_4d_z^2    Cd1_4d_yz      3.89008       1  -1   0           -0.00000 
      8    Cd1_4d_xz    Cd1_4d_yz      3.89008       1  -1   0            0.00000 
      8 Cd1_4d_x^2-y^2    Cd1_4d_yz      3.89008       1  -1   0           -0.00000 
      8       Cd1_5s   Cd1_4d_z^2      3.89008       1  -1   0           -0.00052 
      8    Cd1_4d_xy   Cd1_4d_z^2      3.89008       1  -1   0            0.00000 
      8    Cd1_4d_yz   Cd1_4d_z^2      3.89008       1  -1   0           -0.00000 
      8   Cd1_4d_z^2   Cd1_4d_z^2      3.89008       1  -1   0            0.00000 
      8    Cd1_4d_xz   Cd1_4d_z^2      3.89008       1  -1   0            0.00000 
      8 Cd1_4d_x^2-y^2   Cd1_4d_z^2      3.89008       1  -1   0            0.00000 
      8       Cd1_5s    Cd1_4d_xz      3.89008       1  -1   0            0.00000 
      8    Cd1_4d_xy    Cd1_4d_xz      3.89008       1  -1   0           -0.00000 
      8    Cd1_4d_yz    Cd1_4d_xz      3.89008       1  -1   0            0.00000 
      8   Cd1_4d_z^2    Cd1_4d_xz      3.89008       1  -1   0            0.00000 
      8    Cd1_4d_xz    Cd1_4d_xz      3.89008       1  -1   0           -0.00000 
      8 Cd1_4d_x^2-y^2    Cd1_4d_xz      3.89008       1  -1   0           -0.00000 
      8       Cd1_5s Cd1_4d_x^2-y^2      3.89008       1  -1   0           -0.00002 
      8    Cd1_4d_xy Cd1_4d_x^2-y^2      3.89008       1  -1   0            0.00000 
      8    Cd1_4d_yz Cd1_4d_x^2-y^2      3.89008       1  -1   0           -0.00000 
      8   Cd1_4d_z^2 Cd1_4d_x^2-y^2      3.89008       1  -1   0            0.00000 
      8    Cd1_4d_xz Cd1_4d_x^2-y^2      3.89008       1  -1   0            0.00000 
      8 Cd1_4d_x^2-y^2 Cd1_4d_x^2-y^2      3.89008       1  -1   0            0.00000 
      9          Cd1          Cd1      3.89008      -1   0   0           -0.00412 
      9       Cd1_5s       Cd1_5s      3.89008      -1   0   0           -0.00282 
      9    Cd1_4d_xy       Cd1_5s      3.89008      -1   0   0           -0.00003 
      9    Cd1_4d_yz       Cd1_5s      3.89008      -1   0   0           -0.00008 
      9   Cd1_4d_z^2       Cd1_5s      3.89008      -1   0   0            0.00000 
      9    Cd1_4d_xz       Cd1_5s      3.89008      -1   0   0           -0.00023 
      9 Cd1_4d_x^2-y^2       Cd1_5s      3.89008      -1   0   0           -0.00032 
      9       Cd1_5s    Cd1_4d_xy      3.89008      -1   0   0           -0.00003 
      9    Cd1_4d_xy    Cd1_4d_xy      3.89008      -1   0   0            0.00000 
      9    Cd1_4d_yz    Cd1_4d_xy      3.89008      -1   0   0            0.00000 
      9   Cd1_4d_z^2    Cd1_4d_xy      3.89008      -1   0   0            0.00000 
      9    Cd1_4d_xz    Cd1_4d_xy      3.89008      -1   0   0            0.00000 
      9 Cd1_4d_x^2-y^2    Cd1_4d_xy      3.89008      -1   0   0            0.00000 
      9       Cd1_5s    Cd1_4d_yz      3.89008      -1   0   0           -0.00008 
      9    Cd1_4d_xy    Cd1_4d_yz      3.89008      -1   0   0            0.00000 
      9    Cd1_4d_yz    Cd1_4d_yz      3.89008      -1   0   0            0.00000 
      9   Cd1_4d_z^2    Cd1_4d_yz      3.89008      -1   0   0            0.00000 
      9    Cd1_4d_xz    Cd1_4d_yz      3.89008      -1   0   0           -0.00000 
      9 Cd1_4d_x^2-y^2    Cd1_4d_yz      3.89008      -1   0   0            0.00000 
      9       Cd1_5s   Cd1_4d_z^2      3.89008      -1   0   0            0.00000 
      9    Cd1_4d_xy   Cd1_4d_z^2      3.89008      -1   0   0            0.00000 
      9    Cd1_4d_yz   Cd1_4d_z^2      3.89008      -1   0   0            0.00000 
      9   Cd1_4d_z^2   Cd1_4d_z^2      3.89008      -1   0   0           -0.00000 
      9    Cd1_4d_xz   Cd1_4d_z^2      3.89008      -1   0   0            0.00000 
      9 Cd1_4d_x^2-y^2   Cd1_4d_z^2      3.89008      -1   0   0            0.00000 
      9       Cd1_5s    Cd1_4d_xz      3.89008      -1   0   0           -0.00023 
      9    Cd1_4d_xy    Cd1_4d_xz      3.89008      -1   0   0            0.00000 
      9    Cd1_4d_yz    Cd1_4d_xz      3.89008      -1   0   0           -0.00000 
      9   Cd1_4d_z^2    Cd1_4d_xz      3.89008      -1   0   0            0.00000 
      9    Cd1_4d_xz    Cd1_4d_xz      3.89008      -1   0   0            0.00000 
      9 Cd1_4d_x^2-y^2    Cd1_4d_xz      3.89008      -1   0   0            0.00000 
      9       Cd1_5s Cd1_4d_x^2-y^2      3.89008      -1   0   0           -0.00032 
      9    Cd1_4d_xy Cd1_4d_x^2-y^2      3.89008      -1   0   0            0.00000 
      9    Cd1_4d_yz Cd1_4d_x^2-y^2      3.89008      -1   0   0            0.00000 
      9   Cd1_4d_z^2 Cd1_4d_x^2-y^2      3.89008      -1   0   0            0.00000 
      9    Cd1_4d_xz Cd1_4d_x^2-y^2      3.89008      -1   0   0            0.00000 
      9 Cd1_4d_x^2-y^2 Cd1_4d_x^2-y^2      3.89008      -1   0   0            0.00000 
     10          Cd1          Cd1      3.89008       1   0   0           -0.00412 
     10       Cd1_5s       Cd1_5s      3.89008       1   0   0           -0.00282 
     10    Cd1_4d_xy       Cd1_5s      3.89008       1   0   0           -0.00003 
     10    Cd1_4d_yz       Cd1_5s      3.89008       1   0   0           -0.00008 
     10   Cd1_4d_z^2       Cd1_5s      3.89008       1   0   0            0.00000 
     10    Cd1_4d_xz       Cd1_5s      3.89008       1   0   0           -0.00023 
     10 Cd1_4d_x^2-y^2       Cd1_5s      3.89008       1   0   0           -0.00032 
     10       Cd1_5s    Cd1_4d_xy      3.89008       1   0   0           -0.00003 
     10    Cd1_4d_xy    Cd1_4d_xy      3.89008       1   0   0            0.00000 
     10    Cd1_4d_yz    Cd1_4d_xy      3.89008       1   0   0            0.00000 
     10   Cd1_4d_z^2    Cd1_4d_xy      3.89008       1   0   0            0.00000 
     10    Cd1_4d_xz    Cd1_4d_xy      3.89008       1   0   0            0.00000 
     10 Cd1_4d_x^2-y^2    Cd1_4d_xy      3.89008       1   0   0            0.00000 
     10       Cd1_5s    Cd1_4d_yz      3.89008       1   0   0           -0.00008 
     10    Cd1_4d_xy    Cd1_4d_yz      3.89008       1   0   0            0.00000 
     10    Cd1_4d_yz    Cd1_4d_yz      3.89008       1   0   0            0.00000 
     10   Cd1_4d_z^2    Cd1_4d_yz      3.89008       1   0   0            0.00000 
     10    Cd1_4d_xz    Cd1_4d_yz      3.89008       1   0   0           -0.00000 
     10 Cd1_4d_x^2-y^2    Cd1_4d_yz      3.89008       1   0   0            0.00000 
     10       Cd1_5s   Cd1_4d_z^2      3.89008       1   0   0            0.00000 
     10    Cd1_4d_xy   Cd1_4d_z^2      3.89008       1   0   0            0.00000 
     10    Cd1_4d_yz   Cd1_4d_z^2      3.89008       1   0   0            0.00000 
     10   Cd1_4d_z^2   Cd1_4d_z^2      3.89008       1   0   0           -0.00000 
     10    Cd1_4d_xz   Cd1_4d_z^2      3.89008       1   0   0            0.00000 